 -0.159999996       0.00000000    
 -0.158999994       0.00000000    
 -0.158000007       0.00000000    
 -0.157000005       0.00000000    
 -0.156000003      -5.96331378E-17
 -0.155000001      -3.62789849E-16
 -0.153999999      -1.02587951E-15
 -0.152999997      -1.43399502E-15
 -0.151999995       5.61213379E-16
 -0.150999993       8.46491439E-15
 -0.150000006       2.46946205E-14
 -0.149000004       4.58734884E-14
 -0.148000002       5.85647863E-14
 -0.147000000       4.06698804E-14
 -0.145999998      -2.65958012E-14
 -0.144999996      -1.36416011E-13
 -0.143999994      -2.33406935E-13
 -0.143000007      -2.08557428E-13
 -0.142000005       6.80858703E-14
 -0.141000003       6.69791642E-13
 -0.140000001       1.50996761E-12
 -0.138999999       2.26391779E-12
 -0.137999997       2.38391013E-12
 -0.136999995       1.26174472E-12
 -0.136000007      -1.46222097E-12
 -0.135000005      -5.53002696E-12
 -0.134000003      -9.80549843E-12
 -0.133000001      -1.23220566E-11
 -0.131999999      -1.07794728E-11
 -0.130999997      -3.46990405E-12
 -0.129999995       9.60880334E-12
 -0.128999993       2.58940144E-11
 -0.128000006       4.01651941E-11
 -0.127000004       4.55869544E-11
 -0.126000002       3.58932085E-11
 -0.125000000       8.21646830E-12
 -0.123999998      -3.43917880E-11
 -0.123000003      -8.19045387E-11
 -0.122000001      -1.18658042E-10
 -0.120999999      -1.27339667E-10
 -0.119999997      -9.48982837E-11
 -0.119000003      -1.86874266E-11
 -0.118000001       8.94030752E-11
 -0.116999999       2.02898753E-10
 -0.115999997       2.85845542E-10
 -0.115000002       3.02510100E-10
 -0.114000000       2.29348221E-10
 -0.112999998       6.56328533E-11
 -0.112000003      -1.61102631E-10
 -0.111000001      -3.97585881E-10
 -0.109999999      -5.75886672E-10
 -0.108999997      -6.30960229E-10
 -0.108000003      -5.20218479E-10
 -0.107000001      -2.39542303E-10
 -0.105999999       1.69337711E-10
 -0.104999997       6.23049834E-10
 -0.104000002       1.01223052E-09
 -0.103000000       1.22534283E-09
 -0.101999998       1.17521803E-09
 -0.101000004       8.22278579E-10
 -0.100000001       1.89411334E-10
  -9.89999995E-02  -6.34437614E-10
  -9.79999974E-02  -1.50254498E-09
  -9.70000029E-02  -2.22938645E-09
  -9.60000008E-02  -2.61824984E-09
  -9.49999988E-02  -2.49520449E-09
  -9.39999968E-02  -1.74688686E-09
  -9.30000022E-02  -3.58493152E-10
  -9.20000002E-02   1.55379343E-09
  -9.09999982E-02   3.72443565E-09
  -9.00000036E-02   5.74460479E-09
  -8.90000015E-02   7.10225168E-09
  -8.79999995E-02   7.26085059E-09
  -8.69999975E-02   5.77223158E-09
  -8.60000029E-02   2.40695264E-09
  -8.50000009E-02  -2.72566147E-09
  -8.39999989E-02  -9.10203468E-09
  -8.29999968E-02  -1.57851918E-08
  -8.20000023E-02  -2.15207372E-08
  -8.10000002E-02  -2.49247218E-08
  -7.99999982E-02  -2.47340051E-08
  -7.90000036E-02  -2.00669614E-08
  -7.80000016E-02  -1.06305951E-08
  -7.69999996E-02   3.18493654E-09
  -7.59999976E-02   2.03607389E-08
  -7.50000030E-02   3.94529245E-08
  -7.40000010E-02   5.89058011E-08
  -7.29999989E-02   7.74018289E-08
  -7.19999969E-02   9.41606615E-08
  -7.10000023E-02   1.09108619E-07
  -7.00000003E-02   1.22871953E-07
  -6.89999983E-02   1.36594494E-07
  -6.80000037E-02   1.51629649E-07
  -6.70000017E-02   1.69193058E-07
  -6.59999996E-02   1.90075824E-07
  -6.49999976E-02   2.14501725E-07
  -6.40000030E-02   2.42171922E-07
  -6.30000010E-02   2.72486602E-07
  -6.19999990E-02   3.04881411E-07
  -6.10000007E-02   3.39182691E-07
  -5.99999987E-02   3.75879239E-07
  -5.90000004E-02   4.16230876E-07
  -5.79999983E-02   4.62180878E-07
  -5.70000000E-02   5.16094246E-07
  -5.60000017E-02   5.80391770E-07
  -5.49999997E-02   6.57178759E-07
  -5.40000014E-02   7.47968102E-07
  -5.29999994E-02   8.53569418E-07
  -5.20000011E-02   9.74172394E-07
  -5.09999990E-02   1.10960082E-06
  -5.00000007E-02   1.25967222E-06
  -4.89999987E-02   1.42457293E-06
  -4.80000004E-02   1.60516106E-06
  -4.69999984E-02   1.80313214E-06
  -4.60000001E-02   2.02101933E-06
  -4.50000018E-02   2.26204361E-06
  -4.39999998E-02   2.52986661E-06
  -4.30000015E-02   2.82832025E-06
  -4.19999994E-02   3.16118962E-06
  -4.10000011E-02   3.53211180E-06
  -3.99999991E-02   3.94461995E-06
  -3.90000008E-02   4.40232452E-06
  -3.79999988E-02   4.90918910E-06
  -3.70000005E-02   5.46982437E-06
  -3.59999985E-02   6.08971686E-06
  -3.50000001E-02   6.77532944E-06
  -3.40000018E-02   7.53402946E-06
  -3.29999998E-02   8.37386142E-06
  -3.20000015E-02   9.30322039E-06
  -3.09999995E-02   1.03305283E-05
  -2.99999993E-02   1.14640252E-05
  -2.89999992E-02   1.27117646E-05
  -2.80000009E-02   1.40818647E-05
  -2.70000007E-02   1.55829675E-05
  -2.60000005E-02   1.72248183E-05
  -2.50000004E-02   1.90188148E-05
  -2.40000002E-02   2.09783539E-05
  -2.30000000E-02   2.31188824E-05
  -2.19999999E-02   2.54576116E-05
  -2.09999997E-02   2.80129861E-05
  -1.99999996E-02   3.08040653E-05
  -1.89999994E-02   3.38500504E-05
  -1.79999992E-02   3.71701353E-05
  -1.70000009E-02   4.07837615E-05
  -1.60000008E-02   4.47113016E-05
  -1.49999997E-02   4.89749327E-05
  -1.40000004E-02   5.35994659E-05
  -1.30000003E-02   5.86128517E-05
  -1.20000001E-02   6.40461803E-05
  -1.09999999E-02   6.99331140E-05
  -9.99999978E-03   7.63088974E-05
  -8.99999961E-03   8.32092919E-05
  -8.00000038E-03   9.06697460E-05
  -7.00000022E-03   9.87251769E-05
  -6.00000005E-03   1.07410444E-04
  -4.99999989E-03   1.16761490E-04
  -4.00000019E-03   1.26816813E-04
  -3.00000003E-03   1.37618903E-04
  -2.00000009E-03   1.49215048E-04
  -1.00000005E-03   1.61657386E-04
   0.00000000       1.75002104E-04
   1.00000005E-03   1.89307888E-04
   2.00000009E-03   2.04634256E-04
   3.00000003E-03   2.21040289E-04
   4.00000019E-03   2.38584020E-04
   4.99999989E-03   2.57322914E-04
   6.00000005E-03   2.77315266E-04
   7.00000022E-03   2.98621977E-04
   8.00000038E-03   3.21308296E-04
   8.99999961E-03   3.45444831E-04
   9.99999978E-03   3.71107686E-04
   1.09999999E-02   3.98377568E-04
   1.20000001E-02   4.27337858E-04
   1.30000003E-02   4.58072929E-04
   1.40000004E-02   4.90666309E-04
   1.49999997E-02   5.25200041E-04
   1.60000008E-02   5.61755209E-04
   1.70000009E-02   6.00412837E-04
   1.79999992E-02   6.41255581E-04
   1.89999994E-02   6.84369064E-04
   1.99999996E-02   7.29842635E-04
   2.09999997E-02   7.77769252E-04
   2.19999999E-02   8.28244200E-04
   2.30000000E-02   8.81363405E-04
   2.40000002E-02   9.37222096E-04
   2.50000004E-02   9.95913637E-04
   2.60000005E-02   1.05752947E-03
   2.70000007E-02   1.12216000E-03
   2.80000009E-02   1.18989544E-03
   2.89999992E-02   1.26082788E-03
   2.99999993E-02   1.33505184E-03
   3.09999995E-02   1.41266396E-03
   3.20000015E-02   1.49376225E-03
   3.29999998E-02   1.57844427E-03
   3.40000018E-02   1.66680512E-03
   3.50000001E-02   1.75893621E-03
   3.59999985E-02   1.85492437E-03
   3.70000005E-02   1.95485190E-03
   3.79999988E-02   2.05879821E-03
   3.90000008E-02   2.16684048E-03
   3.99999991E-02   2.27905554E-03
   4.10000011E-02   2.39552045E-03
   4.19999994E-02   2.51631229E-03
   4.30000015E-02   2.64150649E-03
   4.39999998E-02   2.77117710E-03
   4.50000018E-02   2.90539372E-03
   4.60000001E-02   3.04422202E-03
   4.69999984E-02   3.18772276E-03
   4.80000004E-02   3.33595229E-03
   4.89999987E-02   3.48896417E-03
   5.00000007E-02   3.64680937E-03
   5.09999990E-02   3.80953704E-03
   5.20000011E-02   3.97719489E-03
   5.29999994E-02   4.14982857E-03
   5.40000014E-02   4.32748115E-03
   5.49999997E-02   4.51019173E-03
   5.60000017E-02   4.69799666E-03
   5.70000000E-02   4.89092758E-03
   5.79999983E-02   5.08901337E-03
   5.90000004E-02   5.29227871E-03
   5.99999987E-02   5.50074782E-03
   6.10000007E-02   5.71444165E-03
   6.19999990E-02   5.93337975E-03
   6.30000010E-02   6.15757890E-03
   6.40000030E-02   6.38705259E-03
   6.49999976E-02   6.62181061E-03
   6.59999996E-02   6.86186086E-03
   6.70000017E-02   7.10720848E-03
   6.80000037E-02   7.35785719E-03
   6.89999983E-02   7.61381071E-03
   7.00000003E-02   7.87507277E-03
   7.10000023E-02   8.14164896E-03
   7.19999969E-02   8.41354113E-03
   7.29999989E-02   8.69075209E-03
   7.40000010E-02   8.97327811E-03
   7.50000030E-02   9.26111266E-03
   7.59999976E-02   9.55424644E-03
   7.69999996E-02   9.85266641E-03
   7.80000016E-02   1.01563567E-02
   7.90000036E-02   1.04653044E-02
   7.99999982E-02   1.07794972E-02
   8.10000002E-02   1.10989241E-02
   8.20000023E-02   1.14235757E-02
   8.29999968E-02   1.17534390E-02
   8.39999989E-02   1.20884972E-02
   8.50000009E-02   1.24287279E-02
   8.60000029E-02   1.27740977E-02
   8.69999975E-02   1.31245675E-02
   8.79999995E-02   1.34800905E-02
   8.90000015E-02   1.38406167E-02
   9.00000036E-02   1.42060937E-02
   9.09999982E-02   1.45764714E-02
   9.20000002E-02   1.49516957E-02
   9.30000022E-02   1.53317126E-02
   9.39999968E-02   1.57164596E-02
   9.49999988E-02   1.61058679E-02
   9.60000008E-02   1.64998509E-02
   9.70000029E-02   1.68983079E-02
   9.79999974E-02   1.73011255E-02
   9.89999995E-02   1.77081749E-02
  0.100000001       1.81193147E-02
  0.101000004       1.85343958E-02
  0.101999998       1.89532656E-02
  0.103000000       1.93757582E-02
  0.104000002       1.98017042E-02
  0.104999997       2.02309154E-02
  0.105999999       2.06631925E-02
  0.107000001       2.10983157E-02
  0.108000003       2.15360448E-02
  0.108999997       2.19761170E-02
  0.109999999       2.24182513E-02
  0.111000001       2.28621513E-02
  0.112000003       2.33075041E-02
  0.112999998       2.37539858E-02
  0.114000000       2.42012609E-02
  0.115000002       2.46489849E-02
  0.115999997       2.50967946E-02
  0.116999999       2.55443100E-02
  0.118000001       2.59911288E-02
  0.119000003       2.64368299E-02
  0.119999997       2.68809702E-02
  0.120999999       2.73230877E-02
  0.122000001       2.77627129E-02
  0.123000003       2.81993616E-02
  0.123999998       2.86325421E-02
  0.125000000       2.90617626E-02
  0.126000002       2.94865221E-02
  0.127000004       2.99063139E-02
  0.128000006       3.03206258E-02
  0.128999993       3.07289306E-02
  0.129999995       3.11306939E-02
  0.130999997       3.15253735E-02
  0.131999999       3.19124237E-02
  0.133000001       3.22912969E-02
  0.134000003       3.26614454E-02
  0.135000005       3.30223367E-02
  0.136000007       3.33734378E-02
  0.136999995       3.37142386E-02
  0.137999997       3.40442359E-02
  0.138999999       3.43629383E-02
  0.140000001       3.46698612E-02
  0.141000003       3.49645391E-02
  0.142000005       3.52465101E-02
  0.143000007       3.55153307E-02
  0.143999994       3.57705764E-02
  0.144999996       3.60118523E-02
  0.145999998       3.62387858E-02
  0.147000000       3.64510305E-02
  0.148000002       3.66482697E-02
  0.149000004       3.68302241E-02
  0.150000006       3.69966403E-02
  0.150999993       3.71472910E-02
  0.151999995       3.72819826E-02
  0.152999997       3.74005437E-02
  0.153999999       3.75028439E-02
  0.155000001       3.75887826E-02
  0.156000003       3.76582853E-02
  0.157000005       3.77113260E-02
  0.158000007       3.77479158E-02
  0.158999994       3.77680957E-02
  0.159999996       3.77719589E-02
  0.160999998       3.77596244E-02
  0.162000000       3.77312526E-02
  0.163000003       3.76870334E-02
  0.164000005       3.76271941E-02
  0.165000007       3.75519842E-02
  0.165999994       3.74616869E-02
  0.166999996       3.73566262E-02
  0.167999998       3.72371525E-02
  0.169000000       3.71036492E-02
  0.170000002       3.69565338E-02
  0.171000004       3.67962457E-02
  0.172000006       3.66232544E-02
  0.172999993       3.64380516E-02
  0.173999995       3.62411514E-02
  0.174999997       3.60330828E-02
  0.175999999       3.58143896E-02
  0.177000001       3.55856381E-02
  0.178000003       3.53474021E-02
  0.179000005       3.51002812E-02
  0.180000007       3.48448716E-02
  0.180999994       3.45817879E-02
  0.181999996       3.43116485E-02
  0.182999998       3.40350866E-02
  0.184000000       3.37527283E-02
  0.185000002       3.34651992E-02
  0.186000004       3.31731290E-02
  0.187000006       3.28771323E-02
  0.187999994       3.25778238E-02
  0.188999996       3.22758108E-02
  0.189999998       3.19716856E-02
  0.191000000       3.16660367E-02
  0.192000002       3.13594416E-02
  0.193000004       3.10524609E-02
  0.194000006       3.07456423E-02
  0.194999993       3.04395203E-02
  0.195999995       3.01346052E-02
  0.196999997       2.98313927E-02
  0.197999999       2.95303557E-02
  0.199000001       2.92319451E-02
  0.200000003       2.89365891E-02
  0.201000005       2.86446903E-02
  0.202000007       2.83566285E-02
  0.202999994       2.80727651E-02
  0.203999996       2.77934354E-02
  0.204999998       2.75189504E-02
  0.206000000       2.72496026E-02
  0.207000002       2.69856602E-02
  0.208000004       2.67273653E-02
  0.209000006       2.64749341E-02
  0.209999993       2.62285601E-02
  0.210999995       2.59884112E-02
  0.211999997       2.57546287E-02
  0.213000000       2.55273357E-02
  0.214000002       2.53066290E-02
  0.215000004       2.50925887E-02
  0.216000006       2.48852670E-02
  0.216999993       2.46847030E-02
  0.217999995       2.44909190E-02
  0.218999997       2.43039150E-02
  0.219999999       2.41236743E-02
  0.221000001       2.39501651E-02
  0.222000003       2.37833336E-02
  0.223000005       2.36231145E-02
  0.224000007       2.34694295E-02
  0.224999994       2.33221818E-02
  0.225999996       2.31812689E-02
  0.226999998       2.30465773E-02
  0.228000000       2.29179803E-02
  0.229000002       2.27953494E-02
  0.230000004       2.26785447E-02
  0.231000006       2.25674231E-02
  0.231999993       2.24618297E-02
  0.232999995       2.23616045E-02
  0.233999997       2.22665835E-02
  0.234999999       2.21765973E-02
  0.236000001       2.20914707E-02
  0.237000003       2.20110267E-02
  0.238000005       2.19350904E-02
  0.238999993       2.18634866E-02
  0.239999995       2.17960384E-02
  0.240999997       2.17325725E-02
  0.241999999       2.16729119E-02
  0.243000001       2.16168873E-02
  0.244000003       2.15643272E-02
  0.245000005       2.15150639E-02
  0.246000007       2.14689318E-02
  0.246999994       2.14257687E-02
  0.247999996       2.13854238E-02
  0.248999998       2.13477407E-02
  0.250000000       2.13125739E-02
  0.250999987       2.12797802E-02
  0.252000004       2.12492179E-02
  0.252999991       2.12207511E-02
  0.254000008       2.11942438E-02
  0.254999995       2.11695656E-02
  0.256000012       2.11465918E-02
  0.256999999       2.11252049E-02
  0.257999986       2.11052932E-02
  0.259000003       2.10867506E-02
  0.259999990       2.10694838E-02
  0.261000007       2.10533980E-02
  0.261999995       2.10384075E-02
  0.263000011       2.10244227E-02
  0.263999999       2.10113581E-02
  0.264999986       2.09991261E-02
  0.266000003       2.09876467E-02
  0.266999990       2.09768414E-02
  0.268000007       2.09666416E-02
  0.268999994       2.09569894E-02
  0.270000011       2.09478326E-02
  0.270999998       2.09391303E-02
  0.272000015       2.09308472E-02
  0.273000002       2.09229477E-02
  0.273999989       2.09153928E-02
  0.275000006       2.09081396E-02
  0.275999993       2.09011436E-02
  0.277000010       2.08943579E-02
  0.277999997       2.08877400E-02
  0.279000014       2.08812486E-02
  0.280000001       2.08748579E-02
  0.280999988       2.08685473E-02
  0.282000005       2.08623074E-02
  0.282999992       2.08561365E-02
  0.284000009       2.08500326E-02
  0.284999996       2.08439864E-02
  0.286000013       2.08379868E-02
  0.287000000       2.08320171E-02
  0.287999988       2.08260491E-02
  0.289000005       2.08200626E-02
  0.289999992       2.08140388E-02
  0.291000009       2.08079629E-02
  0.291999996       2.08018348E-02
  0.293000013       2.07956582E-02
  0.294000000       2.07894463E-02
  0.294999987       2.07832120E-02
  0.296000004       2.07769703E-02
  0.296999991       2.07707249E-02
  0.298000008       2.07644776E-02
  0.298999995       2.07582228E-02
  0.300000012       2.07519513E-02
  0.300999999       2.07456537E-02
  0.301999986       2.07393263E-02
  0.303000003       2.07329672E-02
  0.303999990       2.07265820E-02
  0.305000007       2.07201838E-02
  0.305999994       2.07137857E-02
  0.307000011       2.07074042E-02
  0.307999998       2.07010470E-02
  0.308999985       2.06947234E-02
  0.310000002       2.06884332E-02
  0.310999990       2.06821803E-02
  0.312000006       2.06759647E-02
  0.312999994       2.06697863E-02
  0.314000010       2.06636488E-02
  0.314999998       2.06575543E-02
  0.316000015       2.06515081E-02
  0.317000002       2.06455160E-02
  0.317999989       2.06395816E-02
  0.319000006       2.06337068E-02
  0.319999993       2.06278991E-02
  0.321000010       2.06221621E-02
  0.321999997       2.06164997E-02
  0.323000014       2.06109192E-02
  0.324000001       2.06054263E-02
  0.324999988       2.06000265E-02
  0.326000005       2.05947217E-02
  0.326999992       2.05895118E-02
  0.328000009       2.05843914E-02
  0.328999996       2.05793548E-02
  0.330000013       2.05743946E-02
  0.331000000       2.05695014E-02
  0.331999987       2.05646716E-02
  0.333000004       2.05599051E-02
  0.333999991       2.05552056E-02
  0.335000008       2.05505863E-02
  0.335999995       2.05460507E-02
  0.337000012       2.05416027E-02
  0.338000000       2.05372442E-02
  0.338999987       2.05329712E-02
  0.340000004       2.05287710E-02
  0.340999991       2.05246285E-02
  0.342000008       2.05205344E-02
  0.342999995       2.05164775E-02
  0.344000012       2.05124542E-02
  0.344999999       2.05084663E-02
  0.345999986       2.05045193E-02
  0.347000003       2.05006190E-02
  0.347999990       2.04967707E-02
  0.349000007       2.04929803E-02
  0.349999994       2.04892419E-02
  0.351000011       2.04855502E-02
  0.351999998       2.04818938E-02
  0.352999985       2.04782616E-02
  0.354000002       2.04746407E-02
  0.354999989       2.04710234E-02
  0.356000006       2.04674099E-02
  0.356999993       2.04638038E-02
  0.358000010       2.04602126E-02
  0.358999997       2.04566419E-02
  0.360000014       2.04530973E-02
  0.361000001       2.04495825E-02
  0.361999989       2.04460993E-02
  0.363000005       2.04426460E-02
  0.363999993       2.04392131E-02
  0.365000010       2.04357971E-02
  0.365999997       2.04323921E-02
  0.367000014       2.04289947E-02
  0.368000001       2.04256065E-02
  0.368999988       2.04222295E-02
  0.370000005       2.04188619E-02
  0.370999992       2.04155110E-02
  0.372000009       2.04121787E-02
  0.372999996       2.04088688E-02
  0.374000013       2.04055812E-02
  0.375000000       2.04023160E-02
  0.375999987       2.03990787E-02
  0.377000004       2.03958675E-02
  0.377999991       2.03926880E-02
  0.379000008       2.03895420E-02
  0.379999995       2.03864276E-02
  0.381000012       2.03833468E-02
  0.381999999       2.03802995E-02
  0.382999986       2.03772839E-02
  0.384000003       2.03742981E-02
  0.384999990       2.03713439E-02
  0.386000007       2.03684196E-02
  0.386999995       2.03655288E-02
  0.388000011       2.03626715E-02
  0.388999999       2.03598496E-02
  0.389999986       2.03570649E-02
  0.391000003       2.03543231E-02
  0.391999990       2.03516241E-02
  0.393000007       2.03489698E-02
  0.393999994       2.03463566E-02
  0.395000011       2.03437805E-02
  0.395999998       2.03412380E-02
  0.397000015       2.03387253E-02
  0.398000002       2.03362368E-02
  0.398999989       2.03337744E-02
  0.400000006       2.03313418E-02
  0.400999993       2.03289427E-02
  0.402000010       2.03265846E-02
  0.402999997       2.03242712E-02
  0.404000014       2.03220043E-02
  0.405000001       2.03197841E-02
  0.405999988       2.03176048E-02
  0.407000005       2.03154590E-02
  0.407999992       2.03133393E-02
  0.409000009       2.03112364E-02
  0.409999996       2.03091446E-02
  0.411000013       2.03070678E-02
  0.412000000       2.03050077E-02
  0.412999988       2.03029737E-02
  0.414000005       2.03009788E-02
  0.414999992       2.02990249E-02
  0.416000009       2.02971157E-02
  0.416999996       2.02952474E-02
  0.418000013       2.02934127E-02
  0.419000000       2.02916004E-02
  0.419999987       2.02897973E-02
  0.421000004       2.02879980E-02
  0.421999991       2.02862006E-02
  0.423000008       2.02844068E-02
  0.423999995       2.02826299E-02
  0.425000012       2.02808771E-02
  0.425999999       2.02791579E-02
  0.426999986       2.02774797E-02
  0.428000003       2.02758424E-02
  0.428999990       2.02742387E-02
  0.430000007       2.02726610E-02
  0.430999994       2.02711001E-02
  0.432000011       2.02695467E-02
  0.432999998       2.02679969E-02
  0.433999985       2.02664547E-02
  0.435000002       2.02649217E-02
  0.435999990       2.02634092E-02
  0.437000006       2.02619229E-02
  0.437999994       2.02604663E-02
  0.439000010       2.02590413E-02
  0.439999998       2.02576462E-02
  0.441000015       2.02562716E-02
  0.442000002       2.02549119E-02
  0.442999989       2.02535652E-02
  0.444000006       2.02522278E-02
  0.444999993       2.02509016E-02
  0.446000010       2.02495959E-02
  0.446999997       2.02483162E-02
  0.448000014       2.02470664E-02
  0.449000001       2.02458482E-02
  0.449999988       2.02446599E-02
  0.451000005       2.02434938E-02
  0.451999992       2.02423446E-02
  0.453000009       2.02412065E-02
  0.453999996       2.02400722E-02
  0.455000013       2.02389415E-02
  0.456000000       2.02378202E-02
  0.456999987       2.02367138E-02
  0.458000004       2.02356242E-02
  0.458999991       2.02345569E-02
  0.460000008       2.02335119E-02
  0.460999995       2.02324893E-02
  0.462000012       2.02314816E-02
  0.463000000       2.02304795E-02
  0.463999987       2.02294812E-02
  0.465000004       2.02284828E-02
  0.465999991       2.02274863E-02
  0.467000008       2.02264972E-02
  0.467999995       2.02255268E-02
  0.469000012       2.02245824E-02
  0.469999999       2.02236734E-02
  0.470999986       2.02227980E-02
  0.472000003       2.02219505E-02
  0.472999990       2.02211216E-02
  0.474000007       2.02203002E-02
  0.474999994       2.02194750E-02
  0.476000011       2.02186424E-02
  0.476999998       2.02178005E-02
  0.477999985       2.02169549E-02
  0.479000002       2.02161185E-02
  0.479999989       2.02153046E-02
  0.481000006       2.02145223E-02
  0.481999993       2.02137772E-02
  0.483000010       2.02130713E-02
  0.483999997       2.02123914E-02
  0.485000014       2.02117264E-02
  0.486000001       2.02110615E-02
  0.486999989       2.02103853E-02
  0.488000005       2.02096943E-02
  0.488999993       2.02089883E-02
  0.490000010       2.02082805E-02
  0.490999997       2.02075802E-02
  0.492000014       2.02069040E-02
  0.493000001       2.02062614E-02
  0.493999988       2.02056505E-02
  0.495000005       2.02050693E-02
  0.495999992       2.02045068E-02
  0.497000009       2.02039462E-02
  0.497999996       2.02033725E-02
  0.499000013       2.02027783E-02
  0.500000000       2.02021617E-02
  0.500999987       2.02015340E-02
  0.501999974       2.02009063E-02
  0.503000021       2.02002935E-02
  0.504000008       2.01997086E-02
  0.504999995       2.01991573E-02
  0.505999982       2.01986339E-02
  0.507000029       2.01981254E-02
  0.508000016       2.01976188E-02
  0.509000003       2.01971009E-02
  0.509999990       2.01965608E-02
  0.510999978       2.01959927E-02
  0.512000024       2.01954059E-02
  0.513000011       2.01948155E-02
  0.513999999       2.01942362E-02
  0.514999986       2.01936830E-02
  0.515999973       2.01931614E-02
  0.517000020       2.01926697E-02
  0.518000007       2.01922003E-02
  0.518999994       2.01917328E-02
  0.519999981       2.01912560E-02
  0.521000028       2.01907586E-02
  0.522000015       2.01902390E-02
  0.523000002       2.01897006E-02
  0.523999989       2.01891586E-02
  0.524999976       2.01886259E-02
  0.526000023       2.01881230E-02
  0.527000010       2.01876573E-02
  0.527999997       2.01872289E-02
  0.528999984       2.01868303E-02
  0.529999971       2.01864429E-02
  0.531000018       2.01860517E-02
  0.532000005       2.01856401E-02
  0.532999992       2.01852024E-02
  0.533999979       2.01847404E-02
  0.535000026       2.01842636E-02
  0.536000013       2.01837905E-02
  0.537000000       2.01833360E-02
  0.537999988       2.01829150E-02
  0.538999975       2.01825295E-02
  0.540000021       2.01821774E-02
  0.541000009       2.01818459E-02
  0.541999996       2.01815218E-02
  0.542999983       2.01811884E-02
  0.544000030       2.01808363E-02
  0.545000017       2.01804675E-02
  0.546000004       2.01800857E-02
  0.546999991       2.01797038E-02
  0.547999978       2.01793369E-02
  0.549000025       2.01789942E-02
  0.550000012       2.01786850E-02
  0.550999999       2.01784074E-02
  0.551999986       2.01781541E-02
  0.552999973       2.01779120E-02
  0.554000020       2.01776698E-02
  0.555000007       2.01774146E-02
  0.555999994       2.01771390E-02
  0.556999981       2.01768447E-02
  0.558000028       2.01765392E-02
  0.559000015       2.01762281E-02
  0.560000002       2.01759245E-02
  0.560999990       2.01756358E-02
  0.561999977       2.01753676E-02
  0.563000023       2.01751180E-02
  0.564000010       2.01748814E-02
  0.564999998       2.01746505E-02
  0.565999985       2.01744139E-02
  0.566999972       2.01741662E-02
  0.568000019       2.01739091E-02
  0.569000006       2.01736446E-02
  0.569999993       2.01733764E-02
  0.570999980       2.01731157E-02
  0.572000027       2.01728661E-02
  0.573000014       2.01726295E-02
  0.574000001       2.01724023E-02
  0.574999988       2.01721787E-02
  0.575999975       2.01719478E-02
  0.577000022       2.01717056E-02
  0.578000009       2.01714449E-02
  0.578999996       2.01711692E-02
  0.579999983       2.01708823E-02
  0.580999970       2.01705918E-02
  0.582000017       2.01703105E-02
  0.583000004       2.01700442E-02
  0.583999991       2.01697964E-02
  0.584999979       2.01695673E-02
  0.586000025       2.01693475E-02
  0.587000012       2.01691277E-02
  0.588000000       2.01688968E-02
  0.588999987       2.01686490E-02
  0.589999974       2.01683827E-02
  0.591000021       2.01681051E-02
  0.592000008       2.01678239E-02
  0.592999995       2.01675501E-02
  0.593999982       2.01672912E-02
  0.595000029       2.01670472E-02
  0.596000016       2.01668162E-02
  0.597000003       2.01665889E-02
  0.597999990       2.01663543E-02
  0.598999977       2.01661009E-02
  0.600000024       2.01658215E-02
  0.601000011       2.01655161E-02
  0.601999998       2.01651938E-02
  0.602999985       2.01648660E-02
  0.603999972       2.01645456E-02
  0.605000019       2.01642420E-02
  0.606000006       2.01639570E-02
  0.606999993       2.01636888E-02
  0.607999980       2.01634299E-02
  0.609000027       2.01631673E-02
  0.610000014       2.01628879E-02
  0.611000001       2.01625861E-02
  0.611999989       2.01622620E-02
  0.612999976       2.01619249E-02
  0.614000022       2.01615840E-02
  0.615000010       2.01612506E-02
  0.615999997       2.01609321E-02
  0.616999984       2.01606341E-02
  0.617999971       2.01603509E-02
  0.619000018       2.01600753E-02
  0.620000005       2.01597922E-02
  0.620999992       2.01594941E-02
  0.621999979       2.01591775E-02
  0.623000026       2.01588459E-02
  0.624000013       2.01585069E-02
  0.625000000       2.01581698E-02
  0.625999987       2.01578438E-02
  0.626999974       2.01575365E-02
  0.628000021       2.01572478E-02
  0.629000008       2.01569721E-02
  0.629999995       2.01567002E-02
  0.630999982       2.01564245E-02
  0.632000029       2.01561358E-02
  0.633000016       2.01558340E-02
  0.634000003       2.01555248E-02
  0.634999990       2.01552156E-02
  0.635999978       2.01549213E-02
  0.637000024       2.01546475E-02
  0.638000011       2.01544017E-02
  0.638999999       2.01541800E-02
  0.639999986       2.01539751E-02
  0.640999973       2.01537777E-02
  0.642000020       2.01535728E-02
  0.643000007       2.01533567E-02
  0.643999994       2.01531276E-02
  0.644999981       2.01528892E-02
  0.646000028       2.01526545E-02
  0.647000015       2.01524347E-02
  0.648000002       2.01522391E-02
  0.648999989       2.01520696E-02
  0.649999976       2.01519243E-02
  0.651000023       2.01517940E-02
  0.652000010       2.01516617E-02
  0.652999997       2.01515183E-02
  0.653999984       2.01513544E-02
  0.654999971       2.01511700E-02
  0.656000018       2.01509744E-02
  0.657000005       2.01507770E-02
  0.657999992       2.01505907E-02
  0.658999979       2.01504268E-02
  0.660000026       2.01502889E-02
  0.661000013       2.01501735E-02
  0.662000000       2.01500747E-02
  0.662999988       2.01499779E-02
  0.663999975       2.01498698E-02
  0.665000021       2.01497450E-02
  0.666000009       2.01496016E-02
  0.666999996       2.01494433E-02
  0.667999983       2.01492775E-02
  0.669000030       2.01491173E-02
  0.670000017       2.01489720E-02
  0.671000004       2.01488491E-02
  0.671999991       2.01487467E-02
  0.672999978       2.01486629E-02
  0.674000025       2.01485902E-02
  0.675000012       2.01485176E-02
  0.675999999       2.01484375E-02
  0.676999986       2.01483462E-02
  0.677999973       2.01482438E-02
  0.679000020       2.01481283E-02
  0.680000007       2.01480091E-02
  0.680999994       2.01478899E-02
  0.681999981       2.01477781E-02
  0.683000028       2.01476794E-02
  0.684000015       2.01475956E-02
  0.685000002       2.01475229E-02
  0.685999990       2.01474577E-02
  0.686999977       2.01473981E-02
  0.688000023       2.01473348E-02
  0.689000010       2.01472659E-02
  0.689999998       2.01471895E-02
  0.690999985       2.01471057E-02
  0.691999972       2.01470181E-02
  0.693000019       2.01469287E-02
  0.694000006       2.01468412E-02
  0.694999993       2.01467611E-02
  0.695999980       2.01466922E-02