 -0.159999996       0.00000000    
 -0.158999994       0.00000000    
 -0.158000007       0.00000000    
 -0.157000005       0.00000000    
 -0.156000003       2.19165494E-18
 -0.155000001      -2.34712416E-17
 -0.153999999      -3.57993393E-16
 -0.152999997      -2.20958815E-15
 -0.151999995      -9.08305447E-15
 -0.150999993      -2.86194442E-14
 -0.150000006      -7.36932623E-14
 -0.149000004      -1.60387545E-13
 -0.148000002      -3.00095479E-13
 -0.147000000      -4.84698056E-13
 -0.145999998      -6.68247684E-13
 -0.144999996      -7.54890833E-13
 -0.143999994      -6.07683175E-13
 -0.143000007      -9.17653608E-14
 -0.142000005       8.45838807E-13
 -0.141000003       2.07865322E-12
 -0.140000001       3.22866798E-12
 -0.138999999       3.67796765E-12
 -0.137999997       2.71326668E-12
 -0.136999995      -1.89116789E-13
 -0.136000007      -4.99941668E-12
 -0.135000005      -1.08269374E-11
 -0.134000003      -1.58461508E-11
 -0.133000001      -1.76076324E-11
 -0.131999999      -1.37738978E-11
 -0.130999997      -3.14173514E-12
 -0.129999995       1.33747458E-11
 -0.128999993       3.22378027E-11
 -0.128000006       4.76501477E-11
 -0.127000004       5.29487877E-11
 -0.126000002       4.28043226E-11
 -0.125000000       1.55909122E-11
 -0.123999998      -2.49725084E-11
 -0.123000003      -6.97681218E-11
 -0.122000001      -1.06253159E-10
 -0.120999999      -1.22183777E-10
 -0.119999997      -1.10017467E-10
 -0.119000003      -7.03751987E-11
 -0.118000001      -1.29428291E-11
 -0.116999999       4.61246770E-11
 -0.115999997       8.99771369E-11
 -0.115000002       1.08263745E-10
 -0.114000000       1.02930851E-10
 -0.112999998       8.96651642E-11
 -0.112000003       9.30963154E-11
 -0.111000001       1.36020764E-10
 -0.109999999       2.25529276E-10
 -0.108999997       3.41077083E-10
 -0.108000003       4.30261549E-10
 -0.107000001       4.16735479E-10
 -0.105999999       2.21303850E-10
 -0.104999997      -2.07390785E-10
 -0.104000002      -8.60687466E-10
 -0.103000000      -1.64705793E-09
 -0.101999998      -2.38908826E-09
 -0.101000004      -2.84692314E-09
 -0.100000001      -2.76804291E-09
  -9.89999995E-02  -1.95523397E-09
  -9.79999974E-02  -3.37663508E-10
  -9.70000029E-02   1.97376537E-09
  -9.60000008E-02   4.66461003E-09
  -9.49999988E-02   7.24060145E-09
  -9.39999968E-02   9.09923070E-09
  -9.30000022E-02   9.64039604E-09
  -9.20000002E-02   8.39725178E-09
  -9.09999982E-02   5.16180432E-09
  -9.00000036E-02   7.81136614E-11
  -8.90000015E-02  -6.32036468E-09
  -8.79999995E-02  -1.31444811E-08
  -8.69999975E-02  -1.92577314E-08
  -8.60000029E-02  -2.34496138E-08
  -8.50000009E-02  -2.46512801E-08
  -8.39999989E-02  -2.21594654E-08
  -8.29999968E-02  -1.58270890E-08
  -8.20000023E-02  -6.17699270E-09
  -8.10000002E-02   5.59887292E-09
  -7.99999982E-02   1.77775750E-08
  -7.90000036E-02   2.83795334E-08
  -7.80000016E-02   3.55477319E-08
  -7.69999996E-02   3.79693894E-08
  -7.59999976E-02   3.52535778E-08
  -7.50000030E-02   2.81696053E-08
  -7.40000010E-02   1.86644069E-08
  -7.29999989E-02   9.61485114E-09
  -7.19999969E-02   4.32805258E-09
  -7.10000023E-02   5.86802162E-09
  -7.00000003E-02   1.63438809E-08
  -6.89999983E-02   3.63258508E-08
  -6.80000037E-02   6.45472653E-08
  -6.70000017E-02   9.79998802E-08
  -6.59999996E-02   1.32443731E-07
  -6.49999976E-02   1.63250704E-07
  -6.40000030E-02   1.86409636E-07
  -6.30000010E-02   1.99465674E-07
  -6.19999990E-02   2.02167627E-07
  -6.10000007E-02   1.96656757E-07
  -5.99999987E-02   1.87137857E-07
  -5.90000004E-02   1.79100553E-07
  -5.79999983E-02   1.78272103E-07
  -5.70000000E-02   1.89549880E-07
  -5.60000017E-02   2.16163443E-07
  -5.49999997E-02   2.59251408E-07
  -5.40000014E-02   3.17924901E-07
  -5.29999994E-02   3.89761396E-07
  -5.20000011E-02   4.71565897E-07
  -5.09999990E-02   5.60181718E-07
  -5.00000007E-02   6.53145207E-07
  -4.89999987E-02   7.49049207E-07
  -4.80000004E-02   8.47585056E-07
  -4.69999984E-02   9.49336084E-07
  -4.60000001E-02   1.05546621E-06
  -4.50000018E-02   1.16745946E-06
  -4.39999998E-02   1.28702254E-06
  -4.30000015E-02   1.41618102E-06
  -4.19999994E-02   1.55750740E-06
  -4.10000011E-02   1.71435556E-06
  -3.99999991E-02   1.89095999E-06
  -3.90000008E-02   2.09229870E-06
  -3.79999988E-02   2.32369939E-06
  -3.70000005E-02   2.59026729E-06
  -3.59999985E-02   2.89627951E-06
  -3.50000001E-02   3.24472467E-06
  -3.40000018E-02   3.63713025E-06
  -3.29999998E-02   4.07374046E-06
  -3.20000015E-02   4.55400641E-06
  -3.09999995E-02   5.07726600E-06
  -2.99999993E-02   5.64343964E-06
  -2.89999992E-02   6.25358552E-06
  -2.80000009E-02   6.91021114E-06
  -2.70000007E-02   7.61733600E-06
  -2.60000005E-02   8.38037340E-06
  -2.50000004E-02   9.20595267E-06
  -2.40000002E-02   1.01017959E-05
  -2.30000000E-02   1.10767087E-05
  -2.19999999E-02   1.21406638E-05
  -2.09999997E-02   1.33048752E-05
  -1.99999996E-02   1.45817512E-05
  -1.89999994E-02   1.59845949E-05
  -1.79999992E-02   1.75270270E-05
  -1.70000009E-02   1.92221996E-05
  -1.60000008E-02   2.10819562E-05
  -1.49999997E-02   2.31161757E-05
  -1.40000004E-02   2.53325179E-05
  -1.30000003E-02   2.77366998E-05
  -1.20000001E-02   3.03333309E-05
  -1.09999999E-02   3.31271658E-05
  -9.99999978E-03   3.61245475E-05
  -8.99999961E-03   3.93347145E-05
  -8.00000038E-03   4.27707091E-05
  -7.00000022E-03   4.64496916E-05
  -6.00000005E-03   5.03926240E-05
  -4.99999989E-03   5.46233969E-05
  -4.00000019E-03   5.91676144E-05
  -3.00000003E-03   6.40513026E-05
  -2.00000009E-03   6.92997928E-05
  -1.00000005E-03   7.49369428E-05
   0.00000000       8.09848643E-05
   1.00000005E-03   8.74640536E-05
   2.00000009E-03   9.43938940E-05
   3.00000003E-03   1.01793383E-04
   4.00000019E-03   1.09681954E-04
   4.99999989E-03   1.18080141E-04
   6.00000005E-03   1.27010135E-04
   7.00000022E-03   1.36496063E-04
   8.00000038E-03   1.46563951E-04
   8.99999961E-03   1.57241477E-04
   9.99999978E-03   1.68557468E-04
   1.09999999E-02   1.80541450E-04
   1.20000001E-02   1.93223066E-04
   1.30000003E-02   2.06631768E-04
   1.40000004E-02   2.20796734E-04
   1.49999997E-02   2.35747008E-04
   1.60000008E-02   2.51511898E-04
   1.70000009E-02   2.68121512E-04
   1.79999992E-02   2.85607006E-04
   1.89999994E-02   3.04001005E-04
   1.99999996E-02   3.23337270E-04
   2.09999997E-02   3.43650376E-04
   2.19999999E-02   3.64974869E-04
   2.30000000E-02   3.87344568E-04
   2.40000002E-02   4.10791836E-04
   2.50000004E-02   4.35347261E-04
   2.60000005E-02   4.61039715E-04
   2.70000007E-02   4.87896818E-04
   2.80000009E-02   5.15945430E-04
   2.89999992E-02   5.45212359E-04
   2.99999993E-02   5.75724524E-04
   3.09999995E-02   6.07508759E-04
   3.20000015E-02   6.40591141E-04
   3.29999998E-02   6.74996409E-04
   3.40000018E-02   7.10746855E-04
   3.50000001E-02   7.47862214E-04
   3.59999985E-02   7.86359422E-04
   3.70000005E-02   8.26253905E-04
   3.79999988E-02   8.67560680E-04
   3.90000008E-02   9.10296221E-04
   3.99999991E-02   9.54479852E-04
   4.10000011E-02   1.00013486E-03
   4.19999994E-02   1.04728842E-03
   4.30000015E-02   1.09597074E-03
   4.39999998E-02   1.14621327E-03
   4.50000018E-02   1.19804684E-03
   4.60000001E-02   1.25149928E-03
   4.69999984E-02   1.30659388E-03
   4.80000004E-02   1.36334857E-03
   4.89999987E-02   1.42177602E-03
   5.00000007E-02   1.48188451E-03
   5.09999990E-02   1.54367939E-03
   5.20000011E-02   1.60716556E-03
   5.29999994E-02   1.67234859E-03
   5.40000014E-02   1.73923688E-03
   5.49999997E-02   1.80784275E-03
   5.60000017E-02   1.87818310E-03
   5.70000000E-02   1.95027993E-03
   5.79999983E-02   2.02416070E-03
   5.90000004E-02   2.09985743E-03
   5.99999987E-02   2.17740703E-03
   6.10000007E-02   2.25685048E-03
   6.19999990E-02   2.33823247E-03
   6.30000010E-02   2.42160005E-03
   6.40000030E-02   2.50700139E-03
   6.49999976E-02   2.59448611E-03
   6.59999996E-02   2.68410402E-03
   6.70000017E-02   2.77590542E-03
   6.80000037E-02   2.86994129E-03
   6.89999983E-02   2.96626450E-03
   7.00000003E-02   3.06493044E-03
   7.10000023E-02   3.16599919E-03
   7.19999969E-02   3.26953572E-03
   7.29999989E-02   3.37561197E-03
   7.40000010E-02   3.48430662E-03
   7.50000030E-02   3.59570608E-03
   7.59999976E-02   3.70990322E-03
   7.69999996E-02   3.82699841E-03
   7.80000016E-02   3.94709734E-03
   7.90000036E-02   4.07031132E-03
   7.99999982E-02   4.19675559E-03
   8.10000002E-02   4.32654936E-03
   8.20000023E-02   4.45981463E-03
   8.29999968E-02   4.59667668E-03
   8.39999989E-02   4.73726168E-03
   8.50000009E-02   4.88169864E-03
   8.60000029E-02   5.03011653E-03
   8.69999975E-02   5.18264668E-03
   8.79999995E-02   5.33942087E-03
   8.90000015E-02   5.50057087E-03
   9.00000036E-02   5.66622941E-03
   9.09999982E-02   5.83652779E-03
   9.20000002E-02   6.01159735E-03
   9.30000022E-02   6.19156659E-03
   9.39999968E-02   6.37656311E-03
   9.49999988E-02   6.56670984E-03
   9.60000008E-02   6.76212693E-03
   9.70000029E-02   6.96292892E-03
   9.79999974E-02   7.16922479E-03
   9.89999995E-02   7.38111744E-03
  0.100000001       7.59870047E-03
  0.101000004       7.82205723E-03
  0.101999998       8.05126037E-03
  0.103000000       8.28636996E-03
  0.104000002       8.52743350E-03
  0.104999997       8.77448358E-03
  0.105999999       9.02753603E-03
  0.107000001       9.28659458E-03
  0.108000003       9.55164526E-03
  0.108999997       9.82265826E-03
  0.109999999       1.00995870E-02
  0.111000001       1.03823692E-02
  0.112000003       1.06709218E-02
  0.112999998       1.09651415E-02
  0.114000000       1.12649044E-02
  0.115000002       1.15700671E-02
  0.115999997       1.18804611E-02
  0.116999999       1.21958973E-02
  0.118000001       1.25161624E-02
  0.119000003       1.28410244E-02
  0.119999997       1.31702283E-02
  0.120999999       1.35034993E-02
  0.122000001       1.38405412E-02
  0.123000003       1.41810346E-02
  0.123999998       1.45246387E-02
  0.125000000       1.48709929E-02
  0.126000002       1.52197154E-02
  0.127000004       1.55704049E-02
  0.128000006       1.59226395E-02
  0.128999993       1.62759852E-02
  0.129999995       1.66299883E-02
  0.130999997       1.69841852E-02
  0.131999999       1.73380952E-02
  0.133000001       1.76912323E-02
  0.134000003       1.80430934E-02
  0.135000005       1.83931701E-02
  0.136000007       1.87409408E-02
  0.136999995       1.90858841E-02
  0.137999997       1.94274671E-02
  0.138999999       1.97651610E-02
  0.140000001       2.00984310E-02
  0.141000003       2.04267465E-02
  0.142000005       2.07495838E-02
  0.143000007       2.10664198E-02
  0.143999994       2.13767365E-02
  0.144999996       2.16800254E-02
  0.145999998       2.19757892E-02
  0.147000000       2.22635381E-02
  0.148000002       2.25428008E-02
  0.149000004       2.28131227E-02
  0.150000006       2.30740644E-02
  0.150999993       2.33252123E-02
  0.151999995       2.35661771E-02
  0.152999997       2.37965900E-02
  0.153999999       2.40161065E-02
  0.155000001       2.42244117E-02
  0.156000003       2.44212113E-02
  0.157000005       2.46062391E-02
  0.158000007       2.47792527E-02
  0.158999994       2.49400418E-02
  0.159999996       2.50884257E-02
  0.160999998       2.52242517E-02
  0.162000000       2.53474005E-02
  0.163000003       2.54577864E-02
  0.164000005       2.55553573E-02
  0.165000007       2.56400909E-02
  0.165999994       2.57120002E-02
  0.166999996       2.57711243E-02
  0.167999998       2.58175395E-02
  0.169000000       2.58513447E-02
  0.170000002       2.58726701E-02
  0.171000004       2.58816797E-02
  0.172000006       2.58785598E-02
  0.172999993       2.58635264E-02
  0.173999995       2.58368254E-02
  0.174999997       2.57987250E-02
  0.175999999       2.57495213E-02
  0.177000001       2.56895293E-02
  0.178000003       2.56190877E-02
  0.179000005       2.55385544E-02
  0.180000007       2.54483018E-02
  0.180999994       2.53487211E-02
  0.181999996       2.52402183E-02
  0.182999998       2.51232069E-02
  0.184000000       2.49981172E-02
  0.185000002       2.48653833E-02
  0.186000004       2.47254483E-02
  0.187000006       2.45787632E-02
  0.187999994       2.44257860E-02
  0.188999996       2.42669750E-02
  0.189999998       2.41027959E-02
  0.191000000       2.39337105E-02
  0.192000002       2.37601846E-02
  0.193000004       2.35826764E-02
  0.194000006       2.34016366E-02
  0.194999993       2.32175142E-02
  0.195999995       2.30307411E-02
  0.196999997       2.28417441E-02
  0.197999999       2.26509366E-02
  0.199000001       2.24587247E-02
  0.200000003       2.22654995E-02
  0.201000005       2.20716447E-02
  0.202000007       2.18775272E-02
  0.202999994       2.16835029E-02
  0.203999996       2.14899145E-02
  0.204999998       2.12970898E-02
  0.206000000       2.11053360E-02
  0.207000002       2.09149495E-02
  0.208000004       2.07262095E-02
  0.209000006       2.05393732E-02
  0.209999993       2.03546863E-02
  0.210999995       2.01723725E-02
  0.211999997       1.99926402E-02
  0.213000000       1.98156759E-02
  0.214000002       1.96416527E-02
  0.215000004       1.94707178E-02
  0.216000006       1.93030052E-02
  0.216999993       1.91386342E-02
  0.217999995       1.89777054E-02
  0.218999997       1.88203081E-02
  0.219999999       1.86665207E-02
  0.221000001       1.85164101E-02
  0.222000003       1.83700267E-02
  0.223000005       1.82274152E-02
  0.224000007       1.80885997E-02
  0.224999994       1.79535970E-02
  0.225999996       1.78224053E-02
  0.226999998       1.76950134E-02
  0.228000000       1.75713953E-02
  0.229000002       1.74515210E-02
  0.230000004       1.73353534E-02
  0.231000006       1.72228478E-02
  0.231999993       1.71139557E-02
  0.232999995       1.70086212E-02
  0.233999997       1.69067867E-02
  0.234999999       1.68083832E-02
  0.236000001       1.67133380E-02
  0.237000003       1.66215673E-02
  0.238000005       1.65329818E-02
  0.238999993       1.64474901E-02
  0.239999995       1.63649954E-02
  0.240999997       1.62854064E-02
  0.241999999       1.62086282E-02
  0.243000001       1.61345731E-02
  0.244000003       1.60631537E-02
  0.245000005       1.59942862E-02
  0.246000007       1.59278847E-02
  0.246999994       1.58638638E-02
  0.247999996       1.58021338E-02
  0.248999998       1.57426093E-02
  0.250000000       1.56851970E-02
  0.250999987       1.56298075E-02
  0.252000004       1.55763542E-02
  0.252999991       1.55247506E-02
  0.254000008       1.54749155E-02
  0.254999995       1.54267717E-02
  0.256000012       1.53802428E-02
  0.256999999       1.53352590E-02
  0.257999986       1.52917476E-02
  0.259000003       1.52496425E-02
  0.259999990       1.52088758E-02
  0.261000007       1.51693830E-02
  0.261999995       1.51311029E-02
  0.263000011       1.50939748E-02
  0.263999999       1.50579419E-02
  0.264999986       1.50229530E-02
  0.266000003       1.49889588E-02
  0.266999990       1.49559109E-02
  0.268000007       1.49237663E-02
  0.268999994       1.48924822E-02
  0.270000011       1.48620177E-02
  0.270999998       1.48323355E-02
  0.272000015       1.48034003E-02
  0.273000002       1.47751765E-02
  0.273999989       1.47476327E-02
  0.275000006       1.47207407E-02
  0.275999993       1.46944728E-02
  0.277000010       1.46688027E-02
  0.277999997       1.46437064E-02
  0.279000014       1.46191614E-02
  0.280000001       1.45951426E-02
  0.280999988       1.45716285E-02
  0.282000005       1.45485969E-02
  0.282999992       1.45260245E-02
  0.284000009       1.45038906E-02
  0.284999996       1.44821759E-02
  0.286000013       1.44608635E-02
  0.287000000       1.44399386E-02
  0.287999988       1.44193880E-02
  0.289000005       1.43992035E-02
  0.289999992       1.43793756E-02
  0.291000009       1.43598961E-02
  0.291999996       1.43407593E-02
  0.293000013       1.43219559E-02
  0.294000000       1.43034784E-02
  0.294999987       1.42853176E-02
  0.296000004       1.42674642E-02
  0.296999991       1.42499087E-02
  0.298000008       1.42326448E-02
  0.298999995       1.42156668E-02
  0.300000012       1.41989700E-02
  0.300999999       1.41825490E-02
  0.301999986       1.41664008E-02
  0.303000003       1.41505208E-02
  0.303999990       1.41349062E-02
  0.305000007       1.41195506E-02
  0.305999994       1.41044464E-02
  0.307000011       1.40895890E-02
  0.307999998       1.40749700E-02
  0.308999985       1.40605848E-02
  0.310000002       1.40464306E-02
  0.310999990       1.40325055E-02
  0.312000006       1.40188094E-02
  0.312999994       1.40053453E-02
  0.314000010       1.39921121E-02
  0.314999998       1.39791109E-02
  0.316000015       1.39663387E-02
  0.317000002       1.39537938E-02
  0.317999989       1.39414705E-02
  0.319000006       1.39293633E-02
  0.319999993       1.39174685E-02
  0.321000010       1.39057813E-02
  0.321999997       1.38942990E-02
  0.323000014       1.38830198E-02
  0.324000001       1.38719417E-02
  0.324999988       1.38610648E-02
  0.326000005       1.38503853E-02
  0.326999992       1.38398996E-02
  0.328000009       1.38296038E-02
  0.328999996       1.38194915E-02
  0.330000013       1.38095580E-02
  0.331000000       1.37998015E-02
  0.331999987       1.37902200E-02
  0.333000004       1.37808146E-02
  0.333999991       1.37715852E-02
  0.335000008       1.37625327E-02
  0.335999995       1.37536544E-02
  0.337000012       1.37449484E-02
  0.338000000       1.37364082E-02
  0.338999987       1.37280263E-02
  0.340000004       1.37197953E-02
  0.340999991       1.37117049E-02
  0.342000008       1.37037486E-02
  0.342999995       1.36959227E-02
  0.344000012       1.36882253E-02
  0.344999999       1.36806555E-02
  0.345999986       1.36732170E-02
  0.347000003       1.36659127E-02
  0.347999990       1.36587443E-02
  0.349000007       1.36517137E-02
  0.349999994       1.36448182E-02
  0.351000011       1.36380559E-02
  0.351999998       1.36314221E-02
  0.352999985       1.36249093E-02
  0.354000002       1.36185121E-02
  0.354999989       1.36122247E-02
  0.356000006       1.36060398E-02
  0.356999993       1.35999536E-02
  0.358000010       1.35939615E-02
  0.358999997       1.35880606E-02
  0.360000014       1.35822501E-02
  0.361000001       1.35765290E-02
  0.361999989       1.35708954E-02
  0.363000005       1.35653513E-02
  0.363999993       1.35598956E-02
  0.365000010       1.35545311E-02
  0.365999997       1.35492571E-02
  0.367000014       1.35440761E-02
  0.368000001       1.35389874E-02
  0.368999988       1.35339890E-02
  0.370000005       1.35290800E-02
  0.370999992       1.35242576E-02
  0.372000009       1.35195171E-02
  0.372999996       1.35148531E-02
  0.374000013       1.35102617E-02
  0.375000000       1.35057364E-02
  0.375999987       1.35012716E-02
  0.377000004       1.34968627E-02
  0.377999991       1.34925060E-02
  0.379000008       1.34881996E-02
  0.379999995       1.34839425E-02
  0.381000012       1.34797357E-02
  0.381999999       1.34755811E-02
  0.382999986       1.34714823E-02
  0.384000003       1.34674432E-02
  0.384999990       1.34634664E-02
  0.386000007       1.34595539E-02
  0.386999995       1.34557066E-02
  0.388000011       1.34519218E-02
  0.388999999       1.34481946E-02
  0.389999986       1.34445205E-02
  0.391000003       1.34408921E-02
  0.391999990       1.34373028E-02
  0.393000007       1.34337461E-02
  0.393999994       1.34302191E-02
  0.395000011       1.34267202E-02
  0.395999998       1.34232491E-02
  0.397000015       1.34198098E-02
  0.398000002       1.34164058E-02
  0.398999989       1.34130409E-02
  0.400000006       1.34097189E-02
  0.400999993       1.34064415E-02
  0.402000010       1.34032108E-02
  0.402999997       1.34000247E-02
  0.404000014       1.33968815E-02
  0.405000001       1.33937774E-02
  0.405999988       1.33907087E-02
  0.407000005       1.33876717E-02
  0.407999992       1.33846626E-02
  0.409000009       1.33816795E-02
  0.409999996       1.33787207E-02
  0.411000013       1.33757861E-02
  0.412000000       1.33728767E-02
  0.412999988       1.33699961E-02
  0.414000005       1.33671490E-02
  0.414999992       1.33643392E-02
  0.416000009       1.33615723E-02
  0.416999996       1.33588519E-02
  0.418000013       1.33561818E-02
  0.419000000       1.33535601E-02
  0.419999987       1.33509850E-02
  0.421000004       1.33484509E-02
  0.421999991       1.33459503E-02
  0.423000008       1.33434739E-02
  0.423999995       1.33410152E-02
  0.425000012       1.33385677E-02
  0.425999999       1.33361267E-02
  0.426999986       1.33336913E-02
  0.428000003       1.33312652E-02
  0.428999990       1.33288531E-02
  0.430000007       1.33264642E-02
  0.430999994       1.33241061E-02
  0.432000011       1.33217871E-02
  0.432999998       1.33195128E-02
  0.433999985       1.33172860E-02
  0.435000002       1.33151058E-02
  0.435999990       1.33129694E-02
  0.437000006       1.33108702E-02
  0.437999994       1.33088017E-02
  0.439000010       1.33067556E-02
  0.439999998       1.33047244E-02
  0.441000015       1.33027053E-02
  0.442000002       1.33006945E-02
  0.442999989       1.32986931E-02
  0.444000006       1.32967029E-02
  0.444999993       1.32947275E-02
  0.446000010       1.32927690E-02
  0.446999997       1.32908318E-02
  0.448000014       1.32889161E-02
  0.449000001       1.32870227E-02
  0.449999988       1.32851526E-02
  0.451000005       1.32833058E-02
  0.451999992       1.32814832E-02
  0.453000009       1.32796848E-02
  0.453999996       1.32779134E-02
  0.455000013       1.32761719E-02
  0.456000000       1.32744620E-02
  0.456999987       1.32727874E-02
  0.458000004       1.32711502E-02
  0.458999991       1.32695520E-02
  0.460000008       1.32679921E-02
  0.460999995       1.32664694E-02
  0.462000012       1.32649811E-02
  0.463000000       1.32635245E-02
  0.463999987       1.32620977E-02
  0.465000004       1.32606970E-02
  0.465999991       1.32593205E-02
  0.467000008       1.32579664E-02
  0.467999995       1.32566327E-02
  0.469000012       1.32553196E-02
  0.469999999       1.32540306E-02
  0.470999986       1.32527696E-02
  0.472000003       1.32515403E-02
  0.472999990       1.32503482E-02
  0.474000007       1.32491998E-02
  0.474999994       1.32480999E-02
  0.476000011       1.32470494E-02
  0.476999998       1.32460473E-02
  0.477999985       1.32450899E-02
  0.479000002       1.32441716E-02
  0.479999989       1.32432850E-02
  0.481000006       1.32424245E-02
  0.481999993       1.32415863E-02
  0.483000010       1.32407695E-02
  0.483999997       1.32399769E-02
  0.485000014       1.32392123E-02
  0.486000001       1.32384840E-02
  0.486999989       1.32377967E-02
  0.488000005       1.32371560E-02
  0.488999993       1.32365618E-02
  0.490000010       1.32360104E-02
  0.490999997       1.32354945E-02
  0.492000014       1.32350056E-02
  0.493000001       1.32345334E-02
  0.493999988       1.32340686E-02
  0.495000005       1.32336030E-02
  0.495999992       1.32331327E-02
  0.497000009       1.32326577E-02
  0.497999996       1.32321818E-02
  0.499000013       1.32317115E-02
  0.500000000       1.32312542E-02
  0.500999987       1.32308193E-02
  0.501999974       1.32304123E-02
  0.503000021       1.32300397E-02
  0.504000008       1.32297026E-02
  0.504999995       1.32293990E-02
  0.505999982       1.32291233E-02
  0.507000029       1.32288681E-02
  0.508000016       1.32286223E-02
  0.509000003       1.32283755E-02
  0.509999990       1.32281166E-02
  0.510999978       1.32278353E-02
  0.512000024       1.32275242E-02
  0.513000011       1.32271778E-02
  0.513999999       1.32267959E-02
  0.514999986       1.32263806E-02
  0.515999973       1.32259354E-02
  0.517000020       1.32254660E-02
  0.518000007       1.32249789E-02
  0.518999994       1.32244788E-02
  0.519999981       1.32239694E-02
  0.521000028       1.32234506E-02
  0.522000015       1.32229235E-02
  0.523000002       1.32223833E-02
  0.523999989       1.32218264E-02
  0.524999976       1.32212443E-02
  0.526000023       1.32206334E-02
  0.527000010       1.32199870E-02
  0.527999997       1.32193025E-02
  0.528999984       1.32185770E-02
  0.529999971       1.32178096E-02
  0.531000018       1.32170012E-02
  0.532000005       1.32161565E-02
  0.532999992       1.32152801E-02
  0.533999979       1.32143749E-02
  0.535000026       1.32134445E-02
  0.536000013       1.32124918E-02
  0.537000000       1.32115157E-02
  0.537999988       1.32105155E-02
  0.538999975       1.32094882E-02
  0.540000021       1.32084312E-02
  0.541000009       1.32073434E-02
  0.541999996       1.32062258E-02
  0.542999983       1.32050803E-02
  0.544000030       1.32039133E-02
  0.545000017       1.32027315E-02
  0.546000004       1.32015413E-02
  0.546999991       1.32003520E-02
  0.547999978       1.31991701E-02
  0.549000025       1.31980013E-02
  0.550000012       1.31968521E-02
  0.550999999       1.31957252E-02
  0.551999986       1.31946243E-02
  0.552999973       1.31935542E-02
  0.554000020       1.31925177E-02
  0.555000007       1.31915165E-02
  0.555999994       1.31905545E-02
  0.556999981       1.31896315E-02
  0.558000028       1.31887458E-02
  0.559000015       1.31878955E-02
  0.560000002       1.31870769E-02
  0.560999990       1.31862881E-02
  0.561999977       1.31855262E-02
  0.563000023       1.31847942E-02
  0.564000010       1.31840957E-02
  0.564999998       1.31834382E-02
  0.565999985       1.31828310E-02
  0.566999972       1.31822815E-02
  0.568000019       1.31817972E-02
  0.569000006       1.31813819E-02
  0.569999993       1.31810373E-02
  0.570999980       1.31807597E-02
  0.572000027       1.31805455E-02
  0.573000014       1.31803872E-02
  0.574000001       1.31802792E-02
  0.574999988       1.31802168E-02
  0.575999975       1.31801944E-02
  0.577000022       1.31802093E-02
  0.578000009       1.31802578E-02
  0.578999996       1.31803378E-02
  0.579999983       1.31804459E-02
  0.580999970       1.31805781E-02
  0.582000017       1.31807290E-02
  0.583000004       1.31808948E-02
  0.583999991       1.31810699E-02
  0.584999979       1.31812505E-02
  0.586000025       1.31814349E-02
  0.587000012       1.31816203E-02
  0.588000000       1.31818056E-02
  0.588999987       1.31819891E-02
  0.589999974       1.31821707E-02
  0.591000021       1.31823467E-02
  0.592000008       1.31825143E-02
  0.592999995       1.31826689E-02
  0.593999982       1.31828040E-02
  0.595000029       1.31829139E-02
  0.596000016       1.31829940E-02
  0.597000003       1.31830387E-02
  0.597999990       1.31830443E-02
  0.598999977       1.31830070E-02
  0.600000024       1.31829269E-02
  0.601000011       1.31828021E-02
  0.601999998       1.31826354E-02
  0.602999985       1.31824277E-02
  0.603999972       1.31821819E-02
  0.605000019       1.31819006E-02
  0.606000006       1.31815877E-02
  0.606999993       1.31812440E-02
  0.607999980       1.31808706E-02
  0.609000027       1.31804682E-02
  0.610000014       1.31800361E-02
  0.611000001       1.31795714E-02
  0.611999989       1.31790712E-02
  0.612999976       1.31785357E-02
  0.614000022       1.31779639E-02
  0.615000010       1.31773567E-02
  0.615999997       1.31767197E-02
  0.616999984       1.31760575E-02
  0.617999971       1.31753767E-02
  0.619000018       1.31746847E-02
  0.620000005       1.31739881E-02
  0.620999992       1.31732915E-02
  0.621999979       1.31725995E-02
  0.623000026       1.31719122E-02
  0.624000013       1.31712304E-02
  0.625000000       1.31705515E-02
  0.625999987       1.31698744E-02
  0.626999974       1.31691964E-02
  0.628000021       1.31685166E-02
  0.629000008       1.31678367E-02
  0.629999995       1.31671587E-02
  0.630999982       1.31664881E-02
  0.632000029       1.31658306E-02
  0.633000016       1.31651917E-02
  0.634000003       1.31645771E-02
  0.634999990       1.31639875E-02
  0.635999978       1.31634269E-02
  0.637000024       1.31628914E-02
  0.638000011       1.31623782E-02
  0.638999999       1.31618818E-02
  0.639999986       1.31613975E-02
  0.640999973       1.31609207E-02
  0.642000020       1.31604467E-02
  0.643000007       1.31599745E-02
  0.643999994       1.31595060E-02
  0.644999981       1.31590441E-02
  0.646000028       1.31585915E-02
  0.647000015       1.31581528E-02
  0.648000002       1.31577291E-02
  0.648999989       1.31573211E-02
  0.649999976       1.31569281E-02
  0.651000023       1.31565463E-02
  0.652000010       1.31561719E-02
  0.652999997       1.31558012E-02
  0.653999984       1.31554333E-02
  0.654999971       1.31550645E-02
  0.656000018       1.31546957E-02
  0.657000005       1.31543269E-02
  0.657999992       1.31539619E-02
  0.658999979       1.31536024E-02
  0.660000026       1.31532485E-02
  0.661000013       1.31529020E-02
  0.662000000       1.31525612E-02
  0.662999988       1.31522240E-02
  0.663999975       1.31518869E-02
  0.665000021       1.31515488E-02
  0.666000009       1.31512061E-02
  0.666999996       1.31508568E-02
  0.667999983       1.31505020E-02
  0.669000030       1.31501453E-02
  0.670000017       1.31497905E-02
  0.671000004       1.31494440E-02
  0.671999991       1.31491125E-02
  0.672999978       1.31488014E-02
  0.674000025       1.31485146E-02
  0.675000012       1.31482519E-02
  0.675999999       1.31480126E-02
  0.676999986       1.31477918E-02
  0.677999973       1.31475842E-02
  0.679000020       1.31473811E-02
  0.680000007       1.31471762E-02
  0.680999994       1.31469639E-02
  0.681999981       1.31467432E-02
  0.683000028       1.31465141E-02
  0.684000015       1.31462794E-02
  0.685000002       1.31460475E-02
  0.685999990       1.31458230E-02
  0.686999977       1.31456135E-02
  0.688000023       1.31454263E-02
  0.689000010       1.31452652E-02
  0.689999998       1.31451329E-02
  0.690999985       1.31450286E-02
  0.691999972       1.31449513E-02
  0.693000019       1.31448982E-02
  0.694000006       1.31448638E-02
  0.694999993       1.31448405E-02
  0.695999980       1.31448237E-02