 -0.159999996       0.00000000    
 -0.158999994       0.00000000    
 -0.158000007       0.00000000    
 -0.157000005       0.00000000    
 -0.156000003       0.00000000    
 -0.155000001      -4.00516612E-21
 -0.153999999      -3.17465037E-20
 -0.152999997      -1.09540659E-19
 -0.151999995      -1.26736219E-19
 -0.150999993       6.32977733E-19
 -0.150000006       4.34608842E-18
 -0.149000004       1.53760303E-17
 -0.148000002       3.94088498E-17
 -0.147000000       7.89891178E-17
 -0.145999998       1.24772069E-16
 -0.144999996       1.46187868E-16
 -0.143999994       9.17292610E-17
 -0.143000007      -8.68504174E-17
 -0.142000005      -3.78044172E-16
 -0.141000003      -6.35358408E-16
 -0.140000001      -5.31991113E-16
 -0.138999999       3.75783255E-16
 -0.137999997       2.40442033E-15
 -0.136999995       5.32075096E-15
 -0.136000007       7.89135874E-15
 -0.135000005       7.72474820E-15
 -0.134000003       1.81434881E-15
 -0.133000001      -1.19421947E-14
 -0.131999999      -3.24112990E-14
 -0.130999997      -5.29327558E-14
 -0.129999995      -6.05984311E-14
 -0.128999993      -3.88437756E-14
 -0.128000006       2.56143898E-14
 -0.127000004       1.32305774E-13
 -0.126000002       2.56463877E-13
 -0.125000000       3.44326374E-13
 -0.123999998       3.20930321E-13
 -0.123000003       1.14620919E-13
 -0.122000001      -3.03693892E-13
 -0.120999999      -8.77359058E-13
 -0.119999997      -1.43611978E-12
 -0.119000003      -1.70641105E-12
 -0.118000001      -1.37690445E-12
 -0.116999999      -2.19475520E-13
 -0.115999997       1.75999764E-12
 -0.115000002       4.19339823E-12
 -0.114000000       6.31312754E-12
 -0.112999998       7.06736709E-12
 -0.112000003       5.41234071E-12
 -0.111000001       7.42045368E-13
 -0.109999999      -6.65899107E-12
 -0.108999997      -1.53129419E-11
 -0.108000003      -2.25803699E-11
 -0.107000001      -2.51523784E-11
 -0.105999999      -1.99983918E-11
 -0.104999997      -5.58753131E-12
 -0.104000002       1.69687753E-11
 -0.103000000       4.33004188E-11
 -0.101999998       6.60950600E-11
 -0.101000004       7.65493433E-11
 -0.100000001       6.68147135E-11
  -9.89999995E-02   3.29034994E-11
  -9.79999974E-02  -2.27969813E-11
  -9.70000029E-02  -9.03604344E-11
  -9.60000008E-02  -1.53266885E-10
  -9.49999988E-02  -1.91704611E-10
  -9.39999968E-02  -1.87754326E-10
  -9.30000022E-02  -1.31249844E-10
  -9.20000002E-02  -2.46171070E-11
  -9.09999982E-02   1.15041698E-10
  -9.00000036E-02   2.57824567E-10
  -8.90000015E-02   3.67048697E-10
  -8.79999995E-02   4.08324374E-10
  -8.69999975E-02   3.59456326E-10
  -8.60000029E-02   2.18333823E-10
  -8.50000009E-02   6.17269603E-12
  -8.39999989E-02  -2.35456959E-10
  -8.29999968E-02  -4.53668547E-10
  -8.20000023E-02  -5.97329353E-10
  -8.10000002E-02  -6.30669517E-10
  -7.99999982E-02  -5.43424084E-10
  -7.90000036E-02  -3.54219959E-10
  -7.80000016E-02  -1.05758499E-10
  -7.69999996E-02   1.47179449E-10
  -7.59999976E-02   3.53522711E-10
  -7.50000030E-02   4.80661733E-10
  -7.40000010E-02   5.23356525E-10
  -7.29999989E-02   5.03610376E-10
  -7.19999969E-02   4.61121752E-10
  -7.10000023E-02   4.37070380E-10
  -7.00000003E-02   4.56449128E-10
  -6.89999983E-02   5.15033072E-10
  -6.80000037E-02   5.75965886E-10
  -6.70000017E-02   5.78063541E-10
  -6.59999996E-02   4.54140142E-10
  -6.49999976E-02   1.54167693E-10
  -6.40000030E-02  -3.33900657E-10
  -6.30000010E-02  -9.72515402E-10
  -6.19999990E-02  -1.67638536E-09
  -6.10000007E-02  -2.32790076E-09
  -5.99999987E-02  -2.80185986E-09
  -5.90000004E-02  -2.99217073E-09
  -5.79999983E-02  -2.83255597E-09
  -5.70000000E-02  -2.30543162E-09
  -5.60000017E-02  -1.43738721E-09
  -5.49999997E-02  -2.84663820E-10
  -5.40000014E-02   1.08413345E-09
  -5.29999994E-02   2.59963961E-09
  -5.20000011E-02   4.19133928E-09
  -5.09999990E-02   5.77385384E-09
  -5.00000007E-02   7.22484605E-09
  -4.89999987E-02   8.36480218E-09
  -4.80000004E-02   8.95117402E-09
  -4.69999984E-02   8.69720829E-09
  -4.60000001E-02   7.31936112E-09
  -4.50000018E-02   4.60804950E-09
  -4.39999998E-02   5.07370868E-10
  -4.30000015E-02  -4.81670526E-09
  -4.19999994E-02  -1.09409450E-08
  -4.10000011E-02  -1.71980528E-08
  -3.99999991E-02  -2.27436026E-08
  -3.90000008E-02  -2.66685731E-08
  -3.79999988E-02  -2.81372614E-08
  -3.70000005E-02  -2.65228337E-08
  -3.59999985E-02  -2.15121823E-08
  -3.50000001E-02  -1.31584548E-08
  -3.40000018E-02  -1.87178384E-09
  -3.29999998E-02   1.16469892E-08
  -3.20000015E-02   2.65124402E-08
  -3.09999995E-02   4.17763566E-08
  -2.99999993E-02   5.65409977E-08
  -2.89999992E-02   7.00461698E-08
  -2.80000009E-02   8.17232291E-08
  -2.70000007E-02   9.12200306E-08
  -2.60000005E-02   9.84088331E-08
  -2.50000004E-02   1.03390946E-07
  -2.40000002E-02   1.06507684E-07
  -2.30000000E-02   1.08358186E-07
  -2.19999999E-02   1.09814550E-07
  -2.09999997E-02   1.12017503E-07
  -1.99999996E-02   1.16334519E-07
  -1.89999994E-02   1.24268368E-07
  -1.79999992E-02   1.37316547E-07
  -1.70000009E-02   1.56797810E-07
  -1.60000008E-02   1.83675652E-07
  -1.49999997E-02   2.18416957E-07
  -1.40000004E-02   2.60922292E-07
  -1.30000003E-02   3.10553219E-07
  -1.20000001E-02   3.66262810E-07
  -1.09999999E-02   4.26813074E-07
  -9.99999978E-03   4.91042726E-07
  -8.99999961E-03   5.58136151E-07
  -8.00000038E-03   6.27843463E-07
  -7.00000022E-03   7.00611054E-07
  -6.00000005E-03   7.77602850E-07
  -4.99999989E-03   8.60615728E-07
  -4.00000019E-03   9.51915354E-07
  -3.00000003E-03   1.05403456E-06
  -2.00000009E-03   1.16957938E-06
  -1.00000005E-03   1.30108151E-06
   0.00000000       1.45091906E-06
   1.00000005E-03   1.62130709E-06
   2.00000009E-03   1.81434052E-06
   3.00000003E-03   2.03206037E-06
   4.00000019E-03   2.27651344E-06
   4.99999989E-03   2.54978636E-06
   6.00000005E-03   2.85400665E-06
   7.00000022E-03   3.19132937E-06
   8.00000038E-03   3.56393093E-06
   8.99999961E-03   3.97404574E-06
   9.99999978E-03   4.42406099E-06
   1.09999999E-02   4.91667925E-06
   1.20000001E-02   5.45512376E-06
   1.30000003E-02   6.04334673E-06
   1.40000004E-02   6.68619214E-06
   1.49999997E-02   7.38946073E-06
   1.60000008E-02   8.15984913E-06
   1.70000009E-02   9.00477244E-06
   1.79999992E-02   9.93209596E-06
   1.89999994E-02   1.09498487E-05
   1.99999996E-02   1.20659925E-05
   2.09999997E-02   1.32883151E-05
   2.19999999E-02   1.46244847E-05
   2.30000000E-02   1.60822692E-05
   2.40000002E-02   1.76698704E-05
   2.50000004E-02   1.93962969E-05
   2.60000005E-02   2.12716823E-05
   2.70000007E-02   2.33074697E-05
   2.80000009E-02   2.55164105E-05
   2.89999992E-02   2.79123906E-05
   2.99999993E-02   3.05101294E-05
   3.09999995E-02   3.33248354E-05
   3.20000015E-02   3.63719519E-05
   3.29999998E-02   3.96669966E-05
   3.40000018E-02   4.32256602E-05
   3.50000001E-02   4.70640334E-05
   3.59999985E-02   5.11989674E-05
   3.70000005E-02   5.56484702E-05
   3.79999988E-02   6.04320230E-05
   3.90000008E-02   6.55707045E-05
   3.99999991E-02   7.10871682E-05
   4.10000011E-02   7.70054321E-05
   4.19999994E-02   8.33505328E-05
   4.30000015E-02   9.01481835E-05
   4.39999998E-02   9.74245122E-05
   4.50000018E-02   1.05205923E-04
   4.60000001E-02   1.13519156E-04
   4.69999984E-02   1.22391415E-04
   4.80000004E-02   1.31850655E-04
   4.89999987E-02   1.41925790E-04
   5.00000007E-02   1.52646797E-04
   5.09999990E-02   1.64044788E-04
   5.20000011E-02   1.76151865E-04
   5.29999994E-02   1.89000886E-04
   5.40000014E-02   2.02625204E-04
   5.49999997E-02   2.17058507E-04
   5.60000017E-02   2.32334656E-04
   5.70000000E-02   2.48487631E-04
   5.79999983E-02   2.65551673E-04
   5.90000004E-02   2.83561210E-04
   5.99999987E-02   3.02551023E-04
   6.10000007E-02   3.22556094E-04
   6.19999990E-02   3.43611580E-04
   6.30000010E-02   3.65752348E-04
   6.40000030E-02   3.89012916E-04
   6.49999976E-02   4.13426955E-04
   6.59999996E-02   4.39027237E-04
   6.70000017E-02   4.65845515E-04
   6.80000037E-02   4.93912434E-04
   6.89999983E-02   5.23257768E-04
   7.00000003E-02   5.53910388E-04
   7.10000023E-02   5.85898291E-04
   7.19999969E-02   6.19248487E-04
   7.29999989E-02   6.53986586E-04
   7.40000010E-02   6.90136629E-04
   7.50000030E-02   7.27720442E-04
   7.59999976E-02   7.66757410E-04
   7.69999996E-02   8.07264121E-04
   7.80000016E-02   8.49254022E-04
   7.90000036E-02   8.92737997E-04
   7.99999982E-02   9.37723962E-04
   8.10000002E-02   9.84217273E-04
   8.20000023E-02   1.03222101E-03
   8.29999968E-02   1.08173583E-03
   8.39999989E-02   1.13275961E-03
   8.50000009E-02   1.18528761E-03
   8.60000029E-02   1.23931153E-03
   8.69999975E-02   1.29481987E-03
   8.79999995E-02   1.35179691E-03
   8.90000015E-02   1.41022261E-03
   9.00000036E-02   1.47007301E-03
   9.09999982E-02   1.53131993E-03
   9.20000002E-02   1.59393123E-03
   9.30000022E-02   1.65787071E-03
   9.39999968E-02   1.72309857E-03
   9.49999988E-02   1.78957137E-03
   9.60000008E-02   1.85724185E-03
   9.70000029E-02   1.92605914E-03
   9.79999974E-02   1.99596887E-03
   9.89999995E-02   2.06691260E-03
  0.100000001       2.13882909E-03
  0.101000004       2.21165363E-03
  0.101999998       2.28531775E-03
  0.103000000       2.35975045E-03
  0.104000002       2.43487791E-03
  0.104999997       2.51062284E-03
  0.105999999       2.58690561E-03
  0.107000001       2.66364426E-03
  0.108000003       2.74075428E-03
  0.108999997       2.81814882E-03
  0.109999999       2.89573986E-03
  0.111000001       2.97343754E-03
  0.112000003       3.05115106E-03
  0.112999998       3.12878937E-03
  0.114000000       3.20626074E-03
  0.115000002       3.28347273E-03
  0.115999997       3.36033222E-03
  0.116999999       3.43674608E-03
  0.118000001       3.51262093E-03
  0.119000003       3.58786387E-03
  0.119999997       3.66238272E-03
  0.120999999       3.73608782E-03
  0.122000001       3.80889187E-03
  0.123000003       3.88071057E-03
  0.123999998       3.95146338E-03
  0.125000000       4.02107229E-03
  0.126000002       4.08946211E-03
  0.127000004       4.15656157E-03
  0.128000006       4.22229897E-03
  0.128999993       4.28660680E-03
  0.129999995       4.34941845E-03
  0.130999997       4.41067200E-03
  0.131999999       4.47031017E-03
  0.133000001       4.52828035E-03
  0.134000003       4.58453782E-03
  0.135000005       4.63904254E-03
  0.136000007       4.69176238E-03
  0.136999995       4.74266894E-03
  0.137999997       4.79173753E-03
  0.138999999       4.83894721E-03
  0.140000001       4.88427933E-03
  0.141000003       4.92771761E-03
  0.142000005       4.96924995E-03
  0.143000007       5.00886980E-03
  0.143999994       5.04657766E-03
  0.144999996       5.08237956E-03
  0.145999998       5.11629134E-03
  0.147000000       5.14833396E-03
  0.148000002       5.17853536E-03
  0.149000004       5.20692533E-03
  0.150000006       5.23353694E-03
  0.150999993       5.25840325E-03
  0.151999995       5.28155779E-03
  0.152999997       5.30303549E-03
  0.153999999       5.32287546E-03
  0.155000001       5.34112006E-03
  0.156000003       5.35781775E-03
  0.157000005       5.37302252E-03
  0.158000007       5.38679305E-03
  0.158999994       5.39919268E-03
  0.159999996       5.41028427E-03
  0.160999998       5.42013068E-03
  0.162000000       5.42879105E-03
  0.163000003       5.43632265E-03
  0.164000005       5.44278091E-03
  0.165000007       5.44821937E-03
  0.165999994       5.45269297E-03
  0.166999996       5.45625994E-03
  0.167999998       5.45898033E-03
  0.169000000       5.46091748E-03
  0.170000002       5.46213565E-03
  0.171000004       5.46269724E-03
  0.172000006       5.46266139E-03
  0.172999993       5.46208164E-03
  0.173999995       5.46100549E-03
  0.174999997       5.45947393E-03
  0.175999999       5.45752328E-03
  0.177000001       5.45518612E-03
  0.178000003       5.45249553E-03
  0.179000005       5.44948317E-03
  0.180000007       5.44618210E-03
  0.180999994       5.44262491E-03
  0.181999996       5.43884281E-03
  0.182999998       5.43486141E-03
  0.184000000       5.43069979E-03
  0.185000002       5.42636961E-03
  0.186000004       5.42187365E-03
  0.187000006       5.41720679E-03
  0.187999994       5.41235926E-03
  0.188999996       5.40731708E-03
  0.189999998       5.40206674E-03
  0.191000000       5.39659290E-03
  0.192000002       5.39088203E-03
  0.193000004       5.38491877E-03
  0.194000006       5.37868403E-03
  0.194999993       5.37215499E-03
  0.195999995       5.36530185E-03
  0.196999997       5.35808643E-03
  0.197999999       5.35046309E-03
  0.199000001       5.34237968E-03
  0.200000003       5.33377938E-03
  0.201000005       5.32460446E-03
  0.202000007       5.31479716E-03
  0.202999994       5.30430116E-03
  0.203999996       5.29306289E-03
  0.204999998       5.28102927E-03
  0.206000000       5.26814722E-03
  0.207000002       5.25435992E-03
  0.208000004       5.23960730E-03
  0.209000006       5.22382278E-03
  0.209999993       5.20693464E-03
  0.210999995       5.18886838E-03
  0.211999997       5.16954903E-03
  0.213000000       5.14890393E-03
  0.214000002       5.12686372E-03
  0.215000004       5.10336505E-03
  0.216000006       5.07834926E-03
  0.216999993       5.05176140E-03
  0.217999995       5.02354838E-03
  0.218999997       4.99365572E-03
  0.219999999       4.96202847E-03
  0.221000001       4.92860936E-03
  0.222000003       4.89334017E-03
  0.223000005       4.85616364E-03
  0.224000007       4.81702574E-03
  0.224999994       4.77588037E-03
  0.225999996       4.73268749E-03
  0.226999998       4.68741683E-03
  0.228000000       4.64004651E-03
  0.229000002       4.59056022E-03
  0.230000004       4.53894492E-03
  0.231000006       4.48519085E-03
  0.231999993       4.42928821E-03
  0.232999995       4.37122956E-03
  0.233999997       4.31100884E-03
  0.234999999       4.24862560E-03
  0.236000001       4.18408681E-03
  0.237000003       4.11740784E-03
  0.238000005       4.04861383E-03
  0.238999993       3.97773879E-03
  0.239999995       3.90482461E-03
  0.240999997       3.82991880E-03
  0.241999999       3.75307258E-03
  0.243000001       3.67433880E-03
  0.244000003       3.59377265E-03
  0.245000005       3.51143279E-03
  0.246000007       3.42738209E-03
  0.246999994       3.34168947E-03
  0.247999996       3.25443130E-03
  0.248999998       3.16569256E-03
  0.250000000       3.07556498E-03
  0.250999987       2.98414682E-03
  0.252000004       2.89154029E-03
  0.252999991       2.79785064E-03
  0.254000008       2.70318356E-03
  0.254999995       2.60764617E-03
  0.256000012       2.51134625E-03
  0.256999999       2.41439440E-03
  0.257999986       2.31690472E-03
  0.259000003       2.21899548E-03
  0.259999990       2.12079007E-03
  0.261000007       2.02241656E-03
  0.261999995       1.92400569E-03
  0.263000011       1.82568934E-03
  0.263999999       1.72759860E-03
  0.264999986       1.62986177E-03
  0.266000003       1.53260434E-03
  0.266999990       1.43594877E-03
  0.268000007       1.34001591E-03
  0.268999994       1.24492589E-03
  0.270000011       1.15079875E-03
  0.270999998       1.05775567E-03
  0.272000015       9.65917658E-04
  0.273000002       8.75405385E-04
  0.273999989       7.86337128E-04
  0.275000006       6.98827556E-04
  0.275999993       6.12986914E-04
  0.277000010       5.28920267E-04
  0.277999997       4.46727441E-04
  0.279000014       3.66503809E-04
  0.280000001       2.88340438E-04
  0.280999988       2.12324332E-04
  0.282000005       1.38538860E-04
  0.282999992       6.70634690E-05
  0.284000009      -2.02695378E-06
  0.284999996      -6.86629792E-05
  0.286000013      -1.32781439E-04
  0.287000000      -1.94325796E-04
  0.287999988      -2.53245933E-04
  0.289000005      -3.09498137E-04
  0.289999992      -3.63044121E-04
  0.291000009      -4.13850270E-04
  0.291999996      -4.61887568E-04
  0.293000013      -5.07131277E-04
  0.294000000      -5.49561344E-04
  0.294999987      -5.89163043E-04
  0.296000004      -6.25927234E-04
  0.296999991      -6.59851357E-04
  0.298000008      -6.90939021E-04
  0.298999995      -7.19200121E-04
  0.300000012      -7.44649908E-04
  0.300999999      -7.67308578E-04
  0.301999986      -7.87200406E-04
  0.303000003      -8.04353331E-04
  0.303999990      -8.18799075E-04
  0.305000007      -8.30573670E-04
  0.305999994      -8.39717803E-04
  0.307000011      -8.46276933E-04
  0.307999998      -8.50301352E-04
  0.308999985      -8.51846358E-04
  0.310000002      -8.50970857E-04
  0.310999990      -8.47736781E-04
  0.312000006      -8.42207926E-04
  0.312999994      -8.34448845E-04
  0.314000010      -8.24524497E-04
  0.314999998      -8.12500482E-04
  0.316000015      -7.98443216E-04
  0.317000002      -7.82420975E-04
  0.317999989      -7.64505181E-04
  0.319000006      -7.44770863E-04
  0.319999993      -7.23296660E-04
  0.321000010      -7.00163888E-04
  0.321999997      -6.75455201E-04
  0.323000014      -6.49253081E-04
  0.324000001      -6.21637795E-04
  0.324999988      -5.92687051E-04
  0.326000005      -5.62475645E-04
  0.326999992      -5.31076454E-04
  0.328000009      -4.98561305E-04
  0.328999996      -4.65002784E-04
  0.330000013      -4.30475047E-04
  0.331000000      -3.95054114E-04
  0.331999987      -3.58817168E-04
  0.333000004      -3.21841275E-04
  0.333999991      -2.84201611E-04
  0.335000008      -2.45970499E-04
  0.335999995      -2.07216042E-04
  0.337000012      -1.68001949E-04
  0.338000000      -1.28388026E-04
  0.338999987      -8.84318142E-05
  0.340000004      -4.81899260E-05
  0.340999991      -7.71937721E-06
  0.342000008       3.29222166E-05
  0.342999995       7.36770671E-05
  0.344000012       1.14488168E-04
  0.344999999       1.55301139E-04
  0.345999986       1.96065332E-04
  0.347000003       2.36735141E-04
  0.347999990       2.77269661E-04
  0.349000007       3.17631901E-04
  0.349999994       3.57787329E-04
  0.351000011       3.97702010E-04
  0.351999998       4.37341718E-04
  0.352999985       4.76671295E-04
  0.354000002       5.15655265E-04
  0.354999989       5.54258644E-04
  0.356000006       5.92449214E-04
  0.356999993       6.30198454E-04
  0.358000010       6.67483080E-04
  0.358999997       7.04284699E-04
  0.360000014       7.40589225E-04
  0.361000001       7.76384899E-04
  0.361999989       8.11661012E-04
  0.363000005       8.46406270E-04
  0.363999993       8.80608219E-04
  0.365000010       9.14252829E-04
  0.365999997       9.47326305E-04
  0.367000014       9.79815843E-04
  0.368000001       1.01171108E-03
  0.368999988       1.04300515E-03
  0.370000005       1.07369444E-03
  0.370999992       1.10377884E-03
  0.372000009       1.13326020E-03
  0.372999996       1.16214110E-03
  0.374000013       1.19042385E-03
  0.375000000       1.21810939E-03
  0.375999987       1.24519726E-03
  0.377000004       1.27168652E-03
  0.377999991       1.29757635E-03
  0.379000008       1.32286770E-03
  0.379999995       1.34756439E-03
  0.381000012       1.37167342E-03
  0.381999999       1.39520422E-03
  0.382999986       1.41816842E-03
  0.384000003       1.44057849E-03
  0.384999990       1.46244606E-03
  0.386000007       1.48378115E-03
  0.386999995       1.50459120E-03
  0.388000011       1.52488158E-03
  0.388999999       1.54465577E-03
  0.389999986       1.56391703E-03
  0.391000003       1.58266991E-03
  0.391999990       1.60092104E-03
  0.393000007       1.61867973E-03
  0.393999994       1.63595763E-03
  0.395000011       1.65276870E-03
  0.395999998       1.66912749E-03
  0.397000015       1.68504787E-03
  0.398000002       1.70054205E-03
  0.398999989       1.71561947E-03
  0.400000006       1.73028721E-03
  0.400999993       1.74455030E-03
  0.402000010       1.75841281E-03
  0.402999997       1.77187962E-03
  0.404000014       1.78495748E-03
  0.405000001       1.79765595E-03
  0.405999988       1.80998677E-03
  0.407000005       1.82196370E-03
  0.407999992       1.83360034E-03
  0.409000009       1.84490939E-03
  0.409999996       1.85590086E-03
  0.411000013       1.86658220E-03
  0.412000000       1.87695783E-03
  0.412999988       1.88702985E-03
  0.414000005       1.89680012E-03
  0.414999992       1.90627179E-03
  0.416000009       1.91544998E-03
  0.416999996       1.92434317E-03
  0.418000013       1.93296291E-03
  0.419000000       1.94132188E-03
  0.419999987       1.94943312E-03
  0.421000004       1.95730780E-03
  0.421999991       1.96495443E-03
  0.423000008       1.97237800E-03
  0.423999995       1.97958038E-03
  0.425000012       1.98656111E-03
  0.425999999       1.99331972E-03
  0.426999986       1.99985690E-03
  0.428000003       2.00617569E-03
  0.428999990       2.01228261E-03
  0.430000007       2.01818650E-03
  0.430999994       2.02389876E-03
  0.432000011       2.02942966E-03
  0.432999998       2.03478942E-03
  0.433999985       2.03998527E-03
  0.435000002       2.04502163E-03
  0.435999990       2.04990013E-03
  0.437000006       2.05462077E-03
  0.437999994       2.05918238E-03
  0.439000010       2.06358568E-03
  0.439999998       2.06783367E-03
  0.441000015       2.07193079E-03
  0.442000002       2.07588403E-03
  0.442999989       2.07970082E-03
  0.444000006       2.08338839E-03
  0.444999993       2.08695256E-03
  0.446000010       2.09039752E-03
  0.446999997       2.09372514E-03
  0.448000014       2.09693494E-03
  0.449000001       2.10002600E-03
  0.449999988       2.10299809E-03
  0.451000005       2.10585189E-03
  0.451999992       2.10859068E-03
  0.453000009       2.11122027E-03
  0.453999996       2.11374788E-03
  0.455000013       2.11618142E-03
  0.456000000       2.11852835E-03
  0.456999987       2.12079473E-03
  0.458000004       2.12298380E-03
  0.458999991       2.12509674E-03
  0.460000008       2.12713284E-03
  0.460999995       2.12909072E-03
  0.462000012       2.13096873E-03
  0.463000000       2.13276665E-03
  0.463999987       2.13448657E-03
  0.465000004       2.13613198E-03
  0.465999991       2.13770801E-03
  0.467000008       2.13922001E-03
  0.467999995       2.14067311E-03
  0.469000012       2.14207126E-03
  0.469999999       2.14341725E-03
  0.470999986       2.14471226E-03
  0.472000003       2.14595743E-03
  0.472999990       2.14715349E-03
  0.474000007       2.14830227E-03
  0.474999994       2.14940729E-03
  0.476000011       2.15047225E-03
  0.476999998       2.15150137E-03
  0.477999985       2.15249835E-03
  0.479000002       2.15346483E-03
  0.479999989       2.15440081E-03
  0.481000006       2.15530512E-03
  0.481999993       2.15617591E-03
  0.483000010       2.15701200E-03
  0.483999997       2.15781340E-03
  0.485000014       2.15858221E-03
  0.486000001       2.15932308E-03
  0.486999989       2.16004159E-03
  0.488000005       2.16074311E-03
  0.488999993       2.16143252E-03
  0.490000010       2.16211122E-03
  0.490999997       2.16277852E-03
  0.492000014       2.16343091E-03
  0.493000001       2.16406351E-03
  0.493999988       2.16467143E-03
  0.495000005       2.16525071E-03
  0.495999992       2.16580066E-03
  0.497000009       2.16632406E-03
  0.497999996       2.16682651E-03
  0.499000013       2.16731452E-03
  0.500000000       2.16779392E-03
  0.500999987       2.16826913E-03
  0.501999974       2.16874084E-03
  0.503000021       2.16920651E-03
  0.504000008       2.16966076E-03
  0.504999995       2.17009685E-03
  0.505999982       2.17050919E-03
  0.507000029       2.17089406E-03
  0.508000016       2.17125146E-03
  0.509000003       2.17158371E-03
  0.509999990       2.17189640E-03
  0.510999978       2.17219512E-03
  0.512000024       2.17248430E-03
  0.513000011       2.17276602E-03
  0.513999999       2.17303867E-03
  0.514999986       2.17329850E-03
  0.515999973       2.17353972E-03
  0.517000020       2.17375718E-03
  0.518000007       2.17394810E-03
  0.518999994       2.17411295E-03
  0.519999981       2.17425544E-03
  0.521000028       2.17438256E-03
  0.522000015       2.17450177E-03
  0.523000002       2.17461959E-03
  0.523999989       2.17474019E-03
  0.524999976       2.17486359E-03
  0.526000023       2.17498560E-03
  0.527000010       2.17509945E-03
  0.527999997       2.17519747E-03
  0.528999984       2.17527361E-03
  0.529999971       2.17532460E-03
  0.531000018       2.17535137E-03
  0.532000005       2.17535859E-03
  0.532999992       2.17535347E-03
  0.533999979       2.17534415E-03
  0.535000026       2.17533647E-03
  0.536000013       2.17533368E-03
  0.537000000       2.17533414E-03
  0.537999988       2.17533344E-03
  0.538999975       2.17532436E-03
  0.540000021       2.17530061E-03
  0.541000009       2.17525731E-03
  0.541999996       2.17519351E-03
  0.542999983       2.17511272E-03
  0.544000030       2.17502075E-03
  0.545000017       2.17492576E-03
  0.546000004       2.17483426E-03
  0.546999991       2.17475067E-03
  0.547999978       2.17467570E-03
  0.549000025       2.17460562E-03
  0.550000012       2.17453414E-03
  0.550999999       2.17445381E-03
  0.551999986       2.17435858E-03
  0.552999973       2.17424519E-03
  0.554000020       2.17411434E-03
  0.555000007       2.17397045E-03
  0.555999994       2.17382004E-03
  0.556999981       2.17366964E-03
  0.558000028       2.17352388E-03
  0.559000015       2.17338465E-03
  0.560000002       2.17324961E-03
  0.560999990       2.17311340E-03
  0.561999977       2.17296951E-03
  0.563000023       2.17281166E-03
  0.564000010       2.17263564E-03
  0.564999998       2.17244099E-03
  0.565999985       2.17223074E-03
  0.566999972       2.17201025E-03
  0.568000019       2.17178697E-03
  0.569000006       2.17156741E-03
  0.569999993       2.17135670E-03
  0.570999980       2.17115670E-03
  0.572000027       2.17096671E-03
  0.573000014       2.17078347E-03
  0.574000001       2.17060209E-03
  0.574999988       2.17041839E-03
  0.575999975       2.17022933E-03
  0.577000022       2.17003445E-03
  0.578000009       2.16983631E-03
  0.578999996       2.16963887E-03
  0.579999983       2.16944702E-03
  0.580999970       2.16926471E-03
  0.582000017       2.16909451E-03
  0.583000004       2.16893689E-03
  0.583999991       2.16879020E-03
  0.584999979       2.16865097E-03
  0.586000025       2.16851616E-03
  0.587000012       2.16838205E-03
  0.588000000       2.16824748E-03
  0.588999987       2.16811243E-03
  0.589999974       2.16797926E-03
  0.591000021       2.16785143E-03
  0.592000008       2.16773292E-03
  0.592999995       2.16762628E-03
  0.593999982       2.16753315E-03
  0.595000029       2.16745306E-03
  0.596000016       2.16738414E-03
  0.597000003       2.16732360E-03
  0.597999990       2.16726819E-03
  0.598999977       2.16721557E-03
  0.600000024       2.16716388E-03
  0.601000011       2.16711289E-03
  0.601999998       2.16706330E-03
  0.602999985       2.16701603E-03
  0.603999972       2.16697273E-03
  0.605000019       2.16693408E-03
  0.606000006       2.16690055E-03
  0.606999993       2.16687121E-03
  0.607999980       2.16684374E-03
  0.609000027       2.16681580E-03
  0.610000014       2.16678507E-03
  0.611000001       2.16674968E-03
  0.611999989       2.16670847E-03
  0.612999976       2.16666120E-03
  0.614000022       2.16660812E-03
  0.615000010       2.16655014E-03
  0.615999997       2.16648844E-03
  0.616999984       2.16642418E-03
  0.617999971       2.16635806E-03
  0.619000018       2.16629077E-03
  0.620000005       2.16622208E-03
  0.620999992       2.16615153E-03
  0.621999979       2.16607796E-03
  0.623000026       2.16599996E-03
  0.624000013       2.16591591E-03
  0.625000000       2.16582441E-03
  0.625999987       2.16572406E-03
  0.626999974       2.16561393E-03
  0.628000021       2.16549472E-03
  0.629000008       2.16536759E-03
  0.629999995       2.16523441E-03
  0.630999982       2.16509774E-03
  0.632000029       2.16495921E-03
  0.633000016       2.16482044E-03
  0.634000003       2.16468121E-03
  0.634999990       2.16454058E-03
  0.635999978       2.16439669E-03
  0.637000024       2.16424745E-03
  0.638000011       2.16409122E-03
  0.638999999       2.16392754E-03
  0.639999986       2.16375710E-03
  0.640999973       2.16358202E-03
  0.642000020       2.16340576E-03
  0.643000007       2.16323091E-03
  0.643999994       2.16305931E-03
  0.644999981       2.16289144E-03
  0.646000028       2.16272590E-03
  0.647000015       2.16256035E-03
  0.648000002       2.16239155E-03
  0.648999989       2.16221740E-03
  0.649999976       2.16203602E-03
  0.651000023       2.16184766E-03
  0.652000010       2.16165371E-03
  0.652999997       2.16145697E-03
  0.653999984       2.16126023E-03
  0.654999971       2.16106535E-03
  0.656000018       2.16087280E-03
  0.657000005       2.16068141E-03
  0.657999992       2.16048886E-03
  0.658999979       2.16029328E-03
  0.660000026       2.16009258E-03
  0.661000013       2.15988629E-03
  0.662000000       2.15967512E-03
  0.662999988       2.15946115E-03
  0.663999975       2.15924671E-03
  0.665000021       2.15903460E-03
  0.666000009       2.15882645E-03
  0.666999996       2.15862249E-03
  0.667999983       2.15842132E-03
  0.669000030       2.15821993E-03
  0.670000017       2.15801550E-03
  0.671000004       2.15780549E-03
  0.671999991       2.15758896E-03
  0.672999978       2.15736683E-03
  0.674000025       2.15714192E-03
  0.675000012       2.15691887E-03
  0.675999999       2.15670234E-03
  0.676999986       2.15649582E-03
  0.677999973       2.15630094E-03
  0.679000020       2.15611677E-03
  0.680000007       2.15594005E-03
  0.680999994       2.15576519E-03
  0.681999981       2.15558661E-03
  0.683000028       2.15539988E-03
  0.684000015       2.15520291E-03
  0.685000002       2.15499639E-03
  0.685999990       2.15478451E-03
  0.686999977       2.15457357E-03
  0.688000023       2.15437054E-03
  0.689000010       2.15418171E-03
  0.689999998       2.15401058E-03
  0.690999985       2.15385715E-03
  0.691999972       2.15371815E-03
  0.693000019       2.15358823E-03
  0.694000006       2.15346157E-03
  0.694999993       2.15333398E-03
  0.695999980       2.15320359E-03