 -0.159999996       0.00000000    
 -0.158999994       0.00000000    
 -0.158000007       0.00000000    
 -0.157000005       0.00000000    
 -0.156000003       0.00000000    
 -0.155000001      -4.00516612E-21
 -0.153999999       3.52121158E-20
 -0.152999997       5.26518244E-19
 -0.151999995       2.88099873E-18
 -0.150999993       9.75537606E-18
 -0.150000006       2.29810378E-17
 -0.149000004       3.74296249E-17
 -0.148000002       3.30549016E-17
 -0.147000000      -2.45298359E-17
 -0.145999998      -1.57671107E-16
 -0.144999996      -3.12898815E-16
 -0.143999994      -2.77403634E-16
 -0.143000007       3.56051649E-16
 -0.142000005       2.06348068E-15
 -0.141000003       5.00529429E-15
 -0.140000001       8.40967090E-15
 -0.138999999       9.98986762E-15
 -0.137999997       5.92872749E-15
 -0.136999995      -7.93185199E-15
 -0.136000007      -3.33464640E-14
 -0.135000005      -6.58265895E-14
 -0.134000003      -9.13587036E-14
 -0.133000001      -8.63987023E-14
 -0.131999999      -2.39944444E-14
 -0.130999997       1.12692740E-13
 -0.129999995       3.11743903E-13
 -0.128999993       5.15732856E-13
 -0.128000006       6.17847028E-13
 -0.127000004       4.82266462E-13
 -0.126000002      -5.40481305E-15
 -0.125000000      -8.64082026E-13
 -0.123999998      -1.94224086E-12
 -0.123000003      -2.87906136E-12
 -0.122000001      -3.14261269E-12
 -0.120999999      -2.17209974E-12
 -0.119999997       3.83160382E-13
 -0.119000003       4.38418659E-12
 -0.118000001       8.98606363E-12
 -0.116999999       1.26130599E-11
 -0.115999997       1.32323579E-11
 -0.115000002       8.95639292E-12
 -0.114000000      -1.12080679E-12
 -0.112999998      -1.60870813E-11
 -0.112000003      -3.27107057E-11
 -0.111000001      -4.56162885E-11
 -0.109999999      -4.83533942E-11
 -0.108999997      -3.53128984E-11
 -0.108000003      -4.10637193E-12
 -0.107000001       4.22916702E-11
 -0.105999999       9.45013304E-11
 -0.104999997       1.37554954E-10
 -0.104000002       1.53922194E-10
 -0.103000000       1.28422592E-10
 -0.101999998       5.39505246E-11
 -0.101000004      -6.36592376E-11
 -0.100000001      -2.03481704E-10
  -9.89999995E-02  -3.31522143E-10
  -9.79999974E-02  -4.07364503E-10
  -9.70000029E-02  -3.94511562E-10
  -9.60000008E-02  -2.72070949E-10
  -9.49999988E-02  -4.44876393E-11
  -9.39999968E-02   2.54059412E-10
  -9.30000022E-02   5.62988933E-10
  -9.20000002E-02   8.06827938E-10
  -9.09999982E-02   9.12922127E-10
  -9.00000036E-02   8.31160085E-10
  -8.90000015E-02   5.50287094E-10
  -8.79999995E-02   1.05670334E-10
  -8.69999975E-02  -4.24698665E-10
  -8.60000029E-02  -9.36011824E-10
  -8.50000009E-02  -1.32077504E-09
  -8.39999989E-02  -1.49496904E-09
  -8.29999968E-02  -1.41886136E-09
  -8.20000023E-02  -1.10625042E-09
  -8.10000002E-02  -6.19154616E-10
  -7.99999982E-02  -4.93831157E-11
  -7.90000036E-02   5.07346720E-10
  -7.80000016E-02   9.76482117E-10
  -7.69999996E-02   1.32068489E-09
  -7.59999976E-02   1.54152413E-09
  -7.50000030E-02   1.66640990E-09
  -7.40000010E-02   1.72574988E-09
  -7.29999989E-02   1.72927694E-09
  -7.19999969E-02   1.65147063E-09
  -7.10000023E-02   1.43335965E-09
  -7.00000003E-02   1.00235553E-09
  -6.89999983E-02   3.04898717E-10
  -6.80000037E-02  -6.59004740E-10
  -6.70000017E-02  -1.81259208E-09
  -6.59999996E-02  -3.00142777E-09
  -6.49999976E-02  -4.01908107E-09
  -6.40000030E-02  -4.65471617E-09
  -6.30000010E-02  -4.74950834E-09
  -6.19999990E-02  -4.24407753E-09
  -6.10000007E-02  -3.20022120E-09
  -5.99999987E-02  -1.78733206E-09
  -5.90000004E-02  -2.35176129E-10
  -5.79999983E-02   1.23344790E-09
  -5.70000000E-02   2.46835130E-09
  -5.60000017E-02   3.43266526E-09
  -5.49999997E-02   4.20205959E-09
  -5.40000014E-02   4.91912644E-09
  -5.29999994E-02   5.71539038E-09
  -5.20000011E-02   6.62645050E-09
  -5.09999990E-02   7.53126539E-09
  -5.00000007E-02   8.14183920E-09
  -4.89999987E-02   8.05520628E-09
  -4.80000004E-02   6.85969459E-09
  -4.69999984E-02   4.26820357E-09
  -4.60000001E-02   2.39281012E-10
  -4.50000018E-02  -4.95324981E-09
  -4.39999998E-02  -1.07286002E-08
  -4.30000015E-02  -1.62894942E-08
  -4.19999994E-02  -2.07741415E-08
  -4.10000011E-02  -2.34294593E-08
  -3.99999991E-02  -2.37580675E-08
  -3.90000008E-02  -2.15992788E-08
  -3.79999988E-02  -1.71252754E-08
  -3.70000005E-02  -1.07610445E-08
  -3.59999985E-02  -3.06128300E-09
  -3.50000001E-02   5.40916067E-09
  -3.40000018E-02   1.41479868E-08
  -3.29999998E-02   2.27171526E-08
  -3.20000015E-02   3.06785708E-08
  -3.09999995E-02   3.74976317E-08
  -2.99999993E-02   4.24664677E-08
  -2.89999992E-02   4.46984885E-08
  -2.80000009E-02   4.32254943E-08
  -2.70000007E-02   3.71940914E-08
  -2.60000005E-02   2.61198636E-08
  -2.50000004E-02   1.01292423E-08
  -2.40000002E-02  -9.88932403E-09
  -2.30000000E-02  -3.22865112E-08
  -2.19999999E-02  -5.48289272E-08
  -2.09999997E-02  -7.50259375E-08
  -1.99999996E-02  -9.05363606E-08
  -1.89999994E-02  -9.95591023E-08
  -1.79999992E-02  -1.01113976E-07
  -1.70000009E-02  -9.51491330E-08
  -1.60000008E-02  -8.24609572E-08
  -1.49999997E-02  -6.44655032E-08
  -1.40000004E-02  -4.29004814E-08
  -1.30000003E-02  -1.95505212E-08
  -1.20000001E-02   3.92864674E-09
  -1.09999999E-02   2.60535984E-08
  -9.99999978E-03   4.54436346E-08
  -8.99999961E-03   6.07029165E-08
  -8.00000038E-03   7.03405831E-08
  -7.00000022E-03   7.28041911E-08
  -6.00000005E-03   6.66612721E-08
  -4.99999989E-03   5.09056441E-08
  -4.00000019E-03   2.53096619E-08
  -3.00000003E-03  -9.29033206E-09
  -2.00000009E-03  -5.08866052E-08
  -1.00000005E-03  -9.64431024E-08
   0.00000000      -1.42295107E-07
   1.00000005E-03  -1.84737132E-07
   2.00000009E-03  -2.20670955E-07
   3.00000003E-03  -2.48160347E-07
   4.00000019E-03  -2.66756132E-07
   4.99999989E-03  -2.77512669E-07
   6.00000005E-03  -2.82696050E-07
   7.00000022E-03  -2.85265827E-07
   8.00000038E-03  -2.88267699E-07
   8.99999961E-03  -2.94292903E-07
   9.99999978E-03  -3.05132545E-07
   1.09999999E-02  -3.21694415E-07
   1.20000001E-02  -3.44170928E-07
   1.30000003E-02  -3.72377883E-07
   1.40000004E-02  -4.06141112E-07
   1.49999997E-02  -4.45604996E-07
   1.60000008E-02  -4.91371338E-07
   1.70000009E-02  -5.44437739E-07
   1.79999992E-02  -6.05970115E-07
   1.89999994E-02  -6.76996478E-07
   1.99999996E-02  -7.58129261E-07
   2.09999997E-02  -8.49412515E-07
   2.19999999E-02  -9.50347555E-07
   2.30000000E-02  -1.06009486E-06
   2.40000002E-02  -1.17779723E-06
   2.50000004E-02  -1.30293495E-06
   2.60000005E-02  -1.43561829E-06
   2.70000007E-02  -1.57674265E-06
   2.80000009E-02  -1.72797559E-06
   2.89999992E-02  -1.89159073E-06
   2.99999993E-02  -2.07020162E-06
   3.09999995E-02  -2.26646830E-06
   3.20000015E-02  -2.48285119E-06
   3.29999998E-02  -2.72145712E-06
   3.40000018E-02  -2.98399823E-06
   3.50000001E-02  -3.27184671E-06
   3.59999985E-02  -3.58614557E-06
   3.70000005E-02  -3.92793208E-06
   3.79999988E-02  -4.29823467E-06
   3.90000008E-02  -4.69812585E-06
   3.99999991E-02  -5.12873248E-06
   4.10000011E-02  -5.59122736E-06
   4.19999994E-02  -6.08682603E-06
   4.30000015E-02  -6.61681815E-06
   4.39999998E-02  -7.18264755E-06
   4.50000018E-02  -7.78602862E-06
   4.60000001E-02  -8.42908412E-06
   4.69999984E-02  -9.11446932E-06
   4.80000004E-02  -9.84545295E-06
   4.89999987E-02  -1.06259276E-05
   5.00000007E-02  -1.14603390E-05
   5.09999990E-02  -1.23535501E-05
   5.20000011E-02  -1.33106532E-05
   5.29999994E-02  -1.43367743E-05
   5.40000014E-02  -1.54369063E-05
   5.49999997E-02  -1.66158061E-05
   5.60000017E-02  -1.78779446E-05
   5.70000000E-02  -1.92275475E-05
   5.79999983E-02  -2.06686818E-05
   5.90000004E-02  -2.22053677E-05
   5.99999987E-02  -2.38416760E-05
   6.10000007E-02  -2.55817904E-05
   6.19999990E-02  -2.74300182E-05
   6.30000010E-02  -2.93907342E-05
   6.40000030E-02  -3.14682984E-05
   6.49999976E-02  -3.36669764E-05
   6.59999996E-02  -3.59908809E-05
   6.70000017E-02  -3.84439736E-05
   6.80000037E-02  -4.10301254E-05
   6.89999983E-02  -4.37532472E-05
   7.00000003E-02  -4.66174424E-05
   7.10000023E-02  -4.96271678E-05
   7.19999969E-02  -5.27873308E-05
   7.29999989E-02  -5.61033448E-05
   7.40000010E-02  -5.95811252E-05
   7.50000030E-02  -6.32270239E-05
   7.59999976E-02  -6.70477166E-05
   7.69999996E-02  -7.10500899E-05
   7.80000016E-02  -7.52411506E-05
   7.90000036E-02  -7.96279492E-05
   7.99999982E-02  -8.42175214E-05
   8.10000002E-02  -8.90168303E-05
   8.20000023E-02  -9.40326863E-05
   8.29999968E-02  -9.92716232E-05
   8.39999989E-02  -1.04739760E-04
   8.50000009E-02  -1.10442663E-04
   8.60000029E-02  -1.16385265E-04
   8.69999975E-02  -1.22571815E-04
   8.79999995E-02  -1.29005974E-04
   8.90000015E-02  -1.35691007E-04
   9.00000036E-02  -1.42630000E-04
   9.09999982E-02  -1.49826068E-04
   9.20000002E-02  -1.57282586E-04
   9.30000022E-02  -1.65003279E-04
   9.39999968E-02  -1.72992179E-04
   9.49999988E-02  -1.81253592E-04
   9.60000008E-02  -1.89791885E-04
   9.70000029E-02  -1.98611378E-04
   9.79999974E-02  -2.07716221E-04
   9.89999995E-02  -2.17110355E-04
  0.100000001      -2.26797711E-04
  0.101000004      -2.36782187E-04
  0.101999998      -2.47067830E-04
  0.103000000      -2.57658830E-04
  0.104000002      -2.68559263E-04
  0.104999997      -2.79773056E-04
  0.105999999      -2.91303615E-04
  0.107000001      -3.03153589E-04
  0.108000003      -3.15324753E-04
  0.108999997      -3.27818008E-04
  0.109999999      -3.40633502E-04
  0.111000001      -3.53770825E-04
  0.112000003      -3.67229397E-04
  0.112999998      -3.81008518E-04
  0.114000000      -3.95107549E-04
  0.115000002      -4.09525877E-04
  0.115999997      -4.24262747E-04
  0.116999999      -4.39317053E-04
  0.118000001      -4.54687368E-04
  0.119000003      -4.70371830E-04
  0.119999997      -4.86368372E-04
  0.120999999      -5.02675015E-04
  0.122000001      -5.19290275E-04
  0.123000003      -5.36213221E-04
  0.123999998      -5.53443388E-04
  0.125000000      -5.70980483E-04
  0.126000002      -5.88823925E-04
  0.127000004      -6.06972259E-04
  0.128000006      -6.25422457E-04
  0.128999993      -6.44169690E-04
  0.129999995      -6.63207320E-04
  0.130999997      -6.82527374E-04
  0.131999999      -7.02120946E-04
  0.133000001      -7.21979013E-04
  0.134000003      -7.42092961E-04
  0.135000005      -7.62454409E-04
  0.136000007      -7.83054973E-04
  0.136999995      -8.03885341E-04
  0.137999997      -8.24934628E-04
  0.138999999      -8.46189389E-04
  0.140000001      -8.67633440E-04
  0.141000003      -8.89248273E-04
  0.142000005      -9.11013689E-04
  0.143000007      -9.32909024E-04
  0.143999994      -9.54914314E-04
  0.144999996      -9.77010932E-04
  0.145999998      -9.99181881E-04
  0.147000000      -1.02141069E-03
  0.148000002      -1.04368036E-03
  0.149000004      -1.06597168E-03
  0.150000006      -1.08826160E-03
  0.150999993      -1.11052219E-03
  0.151999995      -1.13272038E-03
  0.152999997      -1.15481892E-03
  0.153999999      -1.17677788E-03
  0.155000001      -1.19855662E-03
  0.156000003      -1.22011523E-03
  0.157000005      -1.24141551E-03
  0.158000007      -1.26242102E-03
  0.158999994      -1.28309568E-03
  0.159999996      -1.30340201E-03
  0.160999998      -1.32329878E-03
  0.162000000      -1.34273968E-03
  0.163000003      -1.36167277E-03
  0.164000005      -1.38004078E-03
  0.165000007      -1.39778340E-03
  0.165999994      -1.41483929E-03
  0.166999996      -1.43114908E-03
  0.167999998      -1.44665677E-03
  0.169000000      -1.46130985E-03
  0.170000002      -1.47505919E-03
  0.171000004      -1.48785627E-03
  0.172000006      -1.49965053E-03
  0.172999993      -1.51038740E-03
  0.173999995      -1.52000657E-03
  0.174999997      -1.52844202E-03
  0.175999999      -1.53562380E-03
  0.177000001      -1.54148054E-03
  0.178000003      -1.54594309E-03
  0.179000005      -1.54894684E-03
  0.180000007      -1.55043323E-03
  0.180999994      -1.55034952E-03
  0.181999996      -1.54864753E-03
  0.182999998      -1.54528033E-03
  0.184000000      -1.54019997E-03
  0.185000002      -1.53335475E-03
  0.186000004      -1.52468926E-03
  0.187000006      -1.51414494E-03
  0.187999994      -1.50166347E-03
  0.188999996      -1.48718944E-03
  0.189999998      -1.47067441E-03
  0.191000000      -1.45207881E-03
  0.192000002      -1.43137283E-03
  0.193000004      -1.40853564E-03
  0.194000006      -1.38355221E-03
  0.194999993      -1.35641044E-03
  0.195999995      -1.32709788E-03
  0.196999997      -1.29560067E-03
  0.197999999      -1.26190321E-03
  0.199000001      -1.22599024E-03
  0.200000003      -1.18785049E-03
  0.201000005      -1.14747963E-03
  0.202000007      -1.10488373E-03
  0.202999994      -1.06008048E-03
  0.203999996      -1.01309863E-03
  0.204999998      -9.63976025E-04
  0.206000000      -9.12755786E-04
  0.207000002      -8.59482971E-04
  0.208000004      -8.04202340E-04
  0.209000006      -7.46957201E-04
  0.209999993      -6.87790802E-04
  0.210999995      -6.26748835E-04
  0.211999997      -5.63882990E-04
  0.213000000      -4.99254384E-04
  0.214000002      -4.32935543E-04
  0.215000004      -3.65010754E-04
  0.216000006      -2.95574486E-04
  0.216999993      -2.24728239E-04
  0.217999995      -1.52576846E-04
  0.218999997      -7.92252467E-05
  0.219999999      -4.77633466E-06
  0.221000001       7.06691717E-05
  0.222000003       1.47011189E-04
  0.223000005       2.24147501E-04
  0.224000007       3.01970780E-04
  0.224999994       3.80366051E-04
  0.225999996       4.59209958E-04
  0.226999998       5.38371736E-04
  0.228000000       6.17715705E-04
  0.229000002       6.97104668E-04
  0.230000004       7.76403642E-04
  0.231000006       8.55482125E-04
  0.231999993       9.34215437E-04
  0.232999995       1.01248384E-03
  0.233999997       1.09017058E-03
  0.234999999       1.16715883E-03
  0.236000001       1.24332937E-03
  0.237000003       1.31855952E-03
  0.238000005       1.39272294E-03
  0.238999993       1.46569160E-03
  0.239999995       1.53733871E-03
  0.240999997       1.60754146E-03
  0.241999999       1.67618401E-03
  0.243000001       1.74315856E-03
  0.244000003       1.80836546E-03
  0.245000005       1.87171157E-03
  0.246000007       1.93310855E-03
  0.246999994       1.99246989E-03
  0.247999996       2.04971014E-03
  0.248999998       2.10474455E-03
  0.250000000       2.15749023E-03
  0.250999987       2.20786897E-03
  0.252000004       2.25580879E-03
  0.252999991       2.30124756E-03
  0.254000008       2.34413380E-03
  0.254999995       2.38442631E-03
  0.256000012       2.42209295E-03
  0.256999999       2.45710858E-03
  0.257999986       2.48945295E-03
  0.259000003       2.51910766E-03
  0.259999990       2.54605641E-03
  0.261000007       2.57028546E-03
  0.261999995       2.59178504E-03
  0.263000011       2.61055096E-03
  0.263999999       2.62658717E-03
  0.264999986       2.63990765E-03
  0.266000003       2.65053520E-03
  0.266999990       2.65850103E-03
  0.268000007       2.66384264E-03
  0.268999994       2.66660051E-03
  0.270000011       2.66681728E-03
  0.270999998       2.66453624E-03
  0.272000015       2.65980139E-03
  0.273000002       2.65266001E-03
  0.273999989       2.64316378E-03
  0.275000006       2.63137114E-03
  0.275999993       2.61734822E-03
  0.277000010       2.60116882E-03
  0.277999997       2.58291373E-03
  0.279000014       2.56266724E-03
  0.280000001       2.54051574E-03
  0.280999988       2.51654396E-03
  0.282000005       2.49083503E-03
  0.282999992       2.46346928E-03
  0.284000009       2.43452587E-03
  0.284999996       2.40408373E-03
  0.286000013       2.37222412E-03
  0.287000000       2.33903131E-03
  0.287999988       2.30459333E-03
  0.289000005       2.26900144E-03
  0.289999992       2.23234738E-03
  0.291000009       2.19472195E-03
  0.291999996       2.15621386E-03
  0.293000013       2.11690762E-03
  0.294000000       2.07688403E-03
  0.294999987       2.03622109E-03
  0.296000004       1.99499587E-03
  0.296999991       1.95328542E-03
  0.298000008       1.91116799E-03
  0.298999995       1.86872273E-03
  0.300000012       1.82602927E-03
  0.300999999       1.78316562E-03
  0.301999986       1.74020638E-03
  0.303000003       1.69722142E-03
  0.303999990       1.65427488E-03
  0.305000007       1.61142589E-03
  0.305999994       1.56872894E-03
  0.307000011       1.52623607E-03
  0.307999998       1.48399826E-03
  0.308999985       1.44206616E-03
  0.310000002       1.40049076E-03
  0.310999990       1.35932234E-03
  0.312000006       1.31860911E-03
  0.312999994       1.27839576E-03
  0.314000010       1.23872200E-03
  0.314999998       1.19962194E-03
  0.316000015       1.16112479E-03
  0.317000002       1.12325558E-03
  0.317999989       1.08603691E-03
  0.319000006       1.04949030E-03
  0.319999993       1.01363705E-03
  0.321000010       9.78498952E-04
  0.321999997       9.44096944E-04
  0.323000014       9.10450646E-04
  0.324000001       8.77576764E-04
  0.324999988       8.45488103E-04
  0.326000005       8.14193336E-04
  0.326999992       7.83697469E-04
  0.328000009       7.54002656E-04
  0.328999996       7.25109596E-04
  0.330000013       6.97018462E-04
  0.331000000       6.69729896E-04
  0.331999987       6.43244828E-04
  0.333000004       6.17563957E-04
  0.333999991       5.92686469E-04
  0.335000008       5.68608986E-04
  0.335999995       5.45324932E-04
  0.337000012       5.22824121E-04
  0.338000000       5.01093455E-04
  0.338999987       4.80118208E-04
  0.340000004       4.59883420E-04
  0.340999991       4.40375123E-04
  0.342000008       4.21581091E-04
  0.342999995       4.03490936E-04
  0.344000012       3.86095198E-04
  0.344999999       3.69384245E-04
  0.345999986       3.53347044E-04
  0.347000003       3.37970327E-04
  0.347999990       3.23238230E-04
  0.349000007       3.09132854E-04
  0.349999994       2.95635400E-04
  0.351000011       2.82727357E-04
  0.351999998       2.70391756E-04
  0.352999985       2.58613611E-04
  0.354000002       2.47379765E-04
  0.354999989       2.36678141E-04
  0.356000006       2.26496253E-04
  0.356999993       2.16820030E-04
  0.358000010       2.07632955E-04
  0.358999997       1.98915965E-04
  0.360000014       1.90648279E-04
  0.361000001       1.82808741E-04
  0.361999989       1.75377470E-04
  0.363000005       1.68337341E-04
  0.363999993       1.61674601E-04
  0.365000010       1.55378832E-04
  0.365999997       1.49441825E-04
  0.367000014       1.43856028E-04
  0.368000001       1.38612726E-04
  0.368999988       1.33700771E-04
  0.370000005       1.29105872E-04
  0.370999992       1.24811137E-04
  0.372000009       1.20798184E-04
  0.372999996       1.17048963E-04
  0.374000013       1.13547459E-04
  0.375000000       1.10280955E-04
  0.375999987       1.07240427E-04
  0.377000004       1.04419953E-04
  0.377999991       1.01815400E-04
  0.379000008       9.94226502E-05
  0.379999995       9.72359703E-05
  0.381000012       9.52469200E-05
  0.381999999       9.34442360E-05
  0.382999986       9.18144870E-05
  0.384000003       9.03434702E-05
  0.384999990       8.90178999E-05
  0.386000007       8.78268911E-05
  0.386999995       8.67628623E-05
  0.388000011       8.58215863E-05
  0.388999999       8.50013093E-05
  0.389999986       8.43013695E-05
  0.391000003       8.37206680E-05
  0.391999990       8.32563310E-05
  0.393000007       8.29030250E-05
  0.393999994       8.26530668E-05
  0.395000011       8.24973176E-05
  0.395999998       8.24265662E-05
  0.397000015       8.24329400E-05
  0.398000002       8.25109892E-05
  0.398999989       8.26581600E-05
  0.400000006       8.28744232E-05
  0.400999993       8.31612342E-05
  0.402000010       8.35200553E-05
  0.402999997       8.39509376E-05
  0.404000014       8.44514725E-05
  0.405000001       8.50165452E-05
  0.405999988       8.56389088E-05
  0.407000005       8.63103123E-05
  0.407999992       8.70230506E-05
  0.409000009       8.77712955E-05
  0.409999996       8.85519985E-05
  0.411000013       8.93651013E-05
  0.412000000       9.02127867E-05
  0.412999988       9.10982926E-05
  0.414000005       9.20244274E-05
  0.414999992       9.29923408E-05
  0.416000009       9.40007303E-05
  0.416999996       9.50458780E-05
  0.418000013       9.61223705E-05
  0.419000000       9.72242706E-05
  0.419999987       9.83463833E-05
  0.421000004       9.94852599E-05
  0.421999991       1.00639576E-04
  0.423000008       1.01809914E-04
  0.423999995       1.02997874E-04
  0.425000012       1.04204970E-04
  0.425999999       1.05431536E-04
  0.426999986       1.06676118E-04
  0.428000003       1.07935310E-04
  0.428999990       1.09204266E-04
  0.430000007       1.10477631E-04
  0.430999994       1.11750516E-04
  0.432000011       1.13019283E-04
  0.432999998       1.14281946E-04
  0.433999985       1.15537958E-04
  0.435000002       1.16787669E-04
  0.435999990       1.18031545E-04
  0.437000006       1.19269425E-04
  0.437999994       1.20500074E-04
  0.439000010       1.21721147E-04
  0.439999998       1.22929530E-04
  0.441000015       1.24121929E-04
  0.442000002       1.25295468E-04
  0.442999989       1.26448111E-04
  0.444000006       1.27578693E-04
  0.444999993       1.28686777E-04
  0.446000010       1.29772117E-04
  0.446999997       1.30834233E-04
  0.448000014       1.31872133E-04
  0.449000001       1.32884175E-04
  0.449999988       1.33868394E-04
  0.451000005       1.34822898E-04
  0.451999992       1.35746435E-04
  0.453000009       1.36638730E-04
  0.453999996       1.37500581E-04
  0.455000013       1.38333606E-04
  0.456000000       1.39139825E-04
  0.456999987       1.39921001E-04
  0.458000004       1.40678138E-04
  0.458999991       1.41411234E-04
  0.460000008       1.42119243E-04
  0.460999995       1.42800433E-04
  0.462000012       1.43452999E-04
  0.463000000       1.44075675E-04
  0.463999987       1.44668171E-04
  0.465000004       1.45231490E-04
  0.465999991       1.45767845E-04
  0.467000008       1.46280479E-04
  0.467999995       1.46773193E-04
  0.469000012       1.47249870E-04
  0.469999999       1.47714105E-04
  0.470999986       1.48168852E-04
  0.472000003       1.48616353E-04
  0.472999990       1.49058120E-04
  0.474000007       1.49495070E-04
  0.474999994       1.49927801E-04
  0.476000011       1.50356806E-04
  0.476999998       1.50782726E-04
  0.477999985       1.51206565E-04
  0.479000002       1.51629822E-04
  0.479999989       1.52054476E-04
  0.481000006       1.52482768E-04
  0.481999993       1.52917011E-04
  0.483000010       1.53359200E-04
  0.483999997       1.53810790E-04
  0.485000014       1.54272624E-04
  0.486000001       1.54744892E-04
  0.486999989       1.55227433E-04
  0.488000005       1.55720132E-04
  0.488999993       1.56223250E-04
  0.490000010       1.56737660E-04
  0.490999997       1.57264963E-04
  0.492000014       1.57807197E-04
  0.493000001       1.58366398E-04
  0.493999988       1.58944036E-04
  0.495000005       1.59540563E-04
  0.495999992       1.60155148E-04
  0.497000009       1.60785799E-04
  0.497999996       1.61429736E-04
  0.499000013       1.62084063E-04
  0.500000000       1.62746481E-04
  0.500999987       1.63415796E-04
  0.501999974       1.64092067E-04
  0.503000021       1.64776473E-04
  0.504000008       1.65470541E-04
  0.504999995       1.66175480E-04
  0.505999982       1.66891332E-04
  0.507000029       1.67616468E-04
  0.508000016       1.68347658E-04
  0.509000003       1.69080478E-04
  0.509999990       1.69810024E-04
  0.510999978       1.70531945E-04
  0.512000024       1.71243169E-04
  0.513000011       1.71942374E-04
  0.513999999       1.72629982E-04
  0.514999986       1.73307650E-04
  0.515999973       1.73977562E-04
  0.517000020       1.74641536E-04
  0.518000007       1.75300360E-04
  0.518999994       1.75953450E-04
  0.519999981       1.76598958E-04
  0.521000028       1.77234091E-04
  0.522000015       1.77855865E-04
  0.523000002       1.78461749E-04
  0.523999989       1.79050083E-04
  0.524999976       1.79620314E-04
  0.526000023       1.80172719E-04
  0.527000010       1.80708143E-04
  0.527999997       1.81227369E-04
  0.528999984       1.81730662E-04
  0.529999971       1.82217569E-04
  0.531000018       1.82686883E-04
  0.532000005       1.83136930E-04
  0.532999992       1.83566022E-04
  0.533999979       1.83972894E-04
  0.535000026       1.84357224E-04
  0.536000013       1.84719815E-04
  0.537000000       1.85062585E-04
  0.537999988       1.85388213E-04
  0.538999975       1.85699697E-04
  0.540000021       1.85999772E-04
  0.541000009       1.86290345E-04
  0.541999996       1.86572215E-04
  0.542999983       1.86844947E-04
  0.544000030       1.87107100E-04
  0.545000017       1.87356709E-04
  0.546000004       1.87591970E-04
  0.546999991       1.87811806E-04
  0.547999978       1.88016333E-04
  0.549000025       1.88206977E-04
  0.550000012       1.88386271E-04
  0.550999999       1.88557329E-04
  0.551999986       1.88723177E-04
  0.552999973       1.88886115E-04
  0.554000020       1.89047350E-04
  0.555000007       1.89206839E-04
  0.555999994       1.89363534E-04
  0.556999981       1.89515937E-04
  0.558000028       1.89662765E-04
  0.559000015       1.89803512E-04
  0.560000002       1.89938772E-04
  0.560999990       1.90070088E-04
  0.561999977       1.90199586E-04
  0.563000023       1.90329287E-04
  0.564000010       1.90460574E-04
  0.564999998       1.90593695E-04
  0.565999985       1.90727806E-04
  0.566999972       1.90861334E-04
  0.568000019       1.90992592E-04
  0.569000006       1.91120504E-04
  0.569999993       1.91245184E-04
  0.570999980       1.91368206E-04
  0.572000027       1.91492276E-04
  0.573000014       1.91620653E-04
  0.574000001       1.91756306E-04
  0.574999988       1.91901097E-04
  0.575999975       1.92055333E-04
  0.577000022       1.92217660E-04
  0.578000009       1.92385414E-04
  0.578999996       1.92555410E-04
  0.579999983       1.92724765E-04
  0.580999970       1.92891646E-04
  0.582000017       1.93055734E-04
  0.583000004       1.93218148E-04
  0.583999991       1.93381115E-04
  0.584999979       1.93547283E-04
  0.586000025       1.93719039E-04
  0.587000012       1.93897999E-04
  0.588000000       1.94084656E-04
  0.588999987       1.94278546E-04
  0.589999974       1.94478431E-04
  0.591000021       1.94682842E-04
  0.592000008       1.94890366E-04
  0.592999995       1.95100074E-04
  0.593999982       1.95311557E-04
  0.595000029       1.95524874E-04
  0.596000016       1.95740504E-04
  0.597000003       1.95959132E-04
  0.597999990       1.96181529E-04
  0.598999977       1.96408422E-04
  0.600000024       1.96640322E-04
  0.601000011       1.96877489E-04
  0.601999998       1.97119836E-04
  0.602999985       1.97366753E-04
  0.603999972       1.97617104E-04
  0.605000019       1.97869333E-04
  0.606000006       1.98121561E-04
  0.606999993       1.98371956E-04
  0.607999980       1.98619149E-04
  0.609000027       1.98862515E-04
  0.610000014       1.99102360E-04
  0.611000001       1.99339804E-04
  0.611999989       1.99576374E-04
  0.612999976       1.99813498E-04
  0.614000022       2.00051902E-04
  0.615000010       2.00291193E-04
  0.615999997       2.00529830E-04
  0.616999984       2.00765411E-04
  0.617999971       2.00995331E-04
  0.619000018       2.01217583E-04
  0.620000005       2.01431423E-04
  0.620999992       2.01637755E-04
  0.621999979       2.01839022E-04
  0.623000026       2.02038544E-04
  0.624000013       2.02239520E-04
  0.625000000       2.02444120E-04
  0.625999987       2.02652649E-04
  0.626999974       2.02863346E-04
  0.628000021       2.03072676E-04
  0.629000008       2.03276242E-04
  0.629999995       2.03470001E-04
  0.630999982       2.03651347E-04
  0.632000029       2.03819858E-04
  0.633000016       2.03977397E-04
  0.634000003       2.04127631E-04
  0.634999990       2.04274882E-04
  0.635999978       2.04422919E-04
  0.637000024       2.04573793E-04
  0.638000011       2.04727228E-04
  0.638999999       2.04880693E-04
  0.639999986       2.05030155E-04
  0.640999973       2.05171251E-04
  0.642000020       2.05300763E-04
  0.643000007       2.05417644E-04
  0.643999994       2.05523640E-04
  0.644999981       2.05623030E-04
  0.646000028       2.05721692E-04
  0.647000015       2.05825680E-04
  0.648000002       2.05939679E-04
  0.648999989       2.06065728E-04
  0.649999976       2.06202662E-04
  0.651000023       2.06346289E-04
  0.652000010       2.06490353E-04
  0.652999997       2.06628058E-04
  0.653999984       2.06753801E-04
  0.654999971       2.06864526E-04
  0.656000018       2.06960452E-04
  0.657000005       2.07044970E-04
  0.657999992       2.07123696E-04
  0.658999979       2.07202946E-04
  0.660000026       2.07288016E-04
  0.661000013       2.07381789E-04
  0.662000000       2.07483870E-04
  0.662999988       2.07590841E-04
  0.663999975       2.07697231E-04
  0.665000021       2.07797129E-04
  0.666000009       2.07886100E-04
  0.666999996       2.07962556E-04
  0.667999983       2.08028505E-04
  0.669000030       2.08089114E-04
  0.670000017       2.08151396E-04
  0.671000004       2.08222264E-04
  0.671999991       2.08306490E-04
  0.672999978       2.08405167E-04
  0.674000025       2.08515165E-04
  0.675000012       2.08629717E-04
  0.675999999       2.08740224E-04
  0.676999986       2.08838479E-04
  0.677999973       2.08919111E-04
  0.679000020       2.08981044E-04
  0.680000007       2.09027989E-04
  0.680999994       2.09067453E-04
  0.681999981       2.09108723E-04
  0.683000028       2.09160309E-04
  0.684000015       2.09227524E-04
  0.685000002       2.09311038E-04
  0.685999990       2.09406717E-04
  0.686999977       2.09506878E-04
  0.688000023       2.09602615E-04
  0.689000010       2.09686434E-04
  0.689999998       2.09754478E-04
  0.690999985       2.09807811E-04
  0.691999972       2.09852064E-04
  0.693000019       2.09895879E-04
  0.694000006       2.09948455E-04
  0.694999993       2.10016908E-04
  0.695999980       2.10104321E-04