 -0.159999996       0.00000000    
 -0.158999994       0.00000000    
 -0.158000007       0.00000000    
 -0.157000005       0.00000000    
 -0.156000003       0.00000000    
 -0.155000001       0.00000000    
 -0.153999999       0.00000000    
 -0.152999997       2.74058246E-24
 -0.151999995       1.62263671E-23
 -0.150999993      -1.28396216E-23
 -0.150000006      -5.57701739E-22
 -0.149000004      -3.39681880E-21
 -0.148000002      -1.24561865E-20
 -0.147000000      -3.17800465E-20
 -0.145999998      -5.50540655E-20
 -0.144999996      -4.22764902E-20
 -0.143999994       1.08495646E-19
 -0.143000007       5.59049655E-19
 -0.142000005       1.43213336E-18
 -0.141000003       2.55021789E-18
 -0.140000001       3.03239801E-18
 -0.138999999       9.73967431E-19
 -0.137999997      -6.29642065E-18
 -0.136999995      -2.07414000E-17
 -0.136000007      -4.05710352E-17
 -0.135000005      -5.62837578E-17
 -0.134000003      -4.81159845E-17
 -0.133000001       1.11156688E-17
 -0.131999999       1.43540797E-16
 -0.130999997       3.42743703E-16
 -0.129999995       5.44808627E-16
 -0.128999993       6.09343697E-16
 -0.128000006       3.34420201E-16
 -0.127000004      -4.70780700E-16
 -0.126000002      -1.84822822E-15
 -0.125000000      -3.51672748E-15
 -0.123999998      -4.73822353E-15
 -0.123000003      -4.34324699E-15
 -0.122000001      -1.03693953E-15
 -0.120999999       5.95974160E-15
 -0.119999997       1.60289618E-14
 -0.119000003       2.63386945E-14
 -0.118000001       3.15848964E-14
 -0.116999999       2.48491972E-14
 -0.115999997      -6.43402256E-17
 -0.115000002      -4.49604140E-14
 -0.114000000      -1.03169589E-13
 -0.112999998      -1.56776149E-13
 -0.112000003      -1.77349400E-13
 -0.111000001      -1.32072996E-13
 -0.109999999       4.19803589E-15
 -0.108999997       2.32821060E-13
 -0.108000003       5.15959346E-13
 -0.107000001       7.69024980E-13
 -0.105999999       8.68624400E-13
 -0.104999997       6.81148334E-13
 -0.104000002       1.11186939E-13
 -0.103000000      -8.39624811E-13
 -0.101999998      -2.02158689E-12
 -0.101000004      -3.11765956E-12
 -0.100000001      -3.67861167E-12
  -9.89999995E-02  -3.22460830E-12
  -9.79999974E-02  -1.40533212E-12
  -9.70000029E-02   1.81456033E-12
  -9.60000008E-02   6.00110760E-12
  -9.49999988E-02   1.01959483E-11
  -9.39999968E-02   1.30199514E-11
  -9.30000022E-02   1.29618261E-11
  -9.20000002E-02   8.82330754E-12
  -9.09999982E-02   2.28515123E-13
  -9.00000036E-02  -1.19488950E-11
  -8.90000015E-02  -2.54090117E-11
  -8.79999995E-02  -3.66397225E-11
  -8.69999975E-02  -4.15785739E-11
  -8.60000029E-02  -3.66523860E-11
  -8.50000009E-02  -1.99839607E-11
  -8.39999989E-02   7.55666276E-12
  -8.29999968E-02   4.18174245E-11
  -8.20000023E-02   7.56410906E-11
  -8.10000002E-02   1.00074435E-10
  -7.99999982E-02   1.06377573E-10
  -7.90000036E-02   8.84322546E-11
  -7.80000016E-02   4.49445307E-11
  -7.69999996E-02  -1.92242680E-11
  -7.59999976E-02  -9.31364083E-11
  -7.50000030E-02  -1.61492000E-10
  -7.40000010E-02  -2.07770579E-10
  -7.29999989E-02  -2.18150636E-10
  -7.19999969E-02  -1.85242405E-10
  -7.10000023E-02  -1.10595720E-10
  -7.00000003E-02  -5.16949200E-12
  -6.89999983E-02   1.12556763E-10
  -6.80000037E-02   2.20505308E-10
  -6.70000017E-02   2.98018249E-10
  -6.59999996E-02   3.30644484E-10
  -6.49999976E-02   3.13348625E-10
  -6.40000030E-02   2.51188847E-10
  -6.30000010E-02   1.57232005E-10
  -6.19999990E-02   4.83230157E-11
  -6.10000007E-02  -5.99606267E-11
  -5.99999987E-02  -1.57506300E-10
  -5.90000004E-02  -2.41547449E-10
  -5.79999983E-02  -3.15467041E-10
  -5.70000000E-02  -3.84794807E-10
  -5.60000017E-02  -4.51712279E-10
  -5.49999997E-02  -5.10081699E-10
  -5.40000014E-02  -5.43100620E-10
  -5.29999994E-02  -5.25055444E-10
  -5.20000011E-02  -4.27433144E-10
  -5.09999990E-02  -2.28192770E-10
  -5.00000007E-02   7.82567622E-11
  -4.89999987E-02   4.73439454E-10
  -4.80000004E-02   9.12335152E-10
  -4.69999984E-02   1.32763323E-09
  -4.60000001E-02   1.64051595E-09
  -4.50000018E-02   1.77587611E-09
  -4.39999998E-02   1.67846792E-09
  -4.30000015E-02   1.32601530E-09
  -4.19999994E-02   7.35973893E-10
  -4.10000011E-02  -3.57311299E-11
  -3.99999991E-02  -9.03534025E-10
  -3.90000008E-02  -1.76619142E-09
  -3.79999988E-02  -2.52223931E-09
  -3.70000005E-02  -3.08324521E-09
  -3.59999985E-02  -3.38225226E-09
  -3.50000001E-02  -3.37667649E-09
  -3.40000018E-02  -3.04690140E-09
  -3.29999998E-02  -2.39320652E-09
  -3.20000015E-02  -1.43395407E-09
  -3.09999995E-02  -2.06998613E-10
  -2.99999993E-02   1.22558885E-09
  -2.89999992E-02   2.77152568E-09
  -2.80000009E-02   4.30466018E-09
  -2.70000007E-02   5.66758684E-09
  -2.60000005E-02   6.68328948E-09
  -2.50000004E-02   7.17610238E-09
  -2.40000002E-02   6.99928471E-09
  -2.30000000E-02   6.06388628E-09
  -2.19999999E-02   4.36233583E-09
  -2.09999997E-02   1.98075600E-09
  -1.99999996E-02  -9.03607356E-10
  -1.89999994E-02  -4.03992662E-09
  -1.79999992E-02  -7.13278592E-09
  -1.70000009E-02  -9.87653959E-09
  -1.60000008E-02  -1.19882344E-08
  -1.49999997E-02  -1.32335884E-08
  -1.40000004E-02  -1.34434348E-08
  -1.30000003E-02  -1.25213733E-08
  -1.20000001E-02  -1.04460778E-08
  -1.09999999E-02  -7.27260874E-09
  -9.99999978E-03  -3.13594684E-09
  -8.99999961E-03   1.74295511E-09
  -8.00000038E-03   7.05183512E-09
  -7.00000022E-03   1.23885133E-08
  -6.00000005E-03   1.72757773E-08
  -4.99999989E-03   2.11945856E-08
  -4.00000019E-03   2.36361046E-08
  -3.00000003E-03   2.41673916E-08
  -2.00000009E-03   2.25003856E-08
  -1.00000005E-03   1.85507929E-08
   0.00000000       1.24737261E-08
   1.00000005E-03   4.66685890E-09
   2.00000009E-03  -4.26162661E-09
   3.00000003E-03  -1.35555398E-08
   4.00000019E-03  -2.23925571E-08
   4.99999989E-03  -2.99710301E-08
   6.00000005E-03  -3.55877354E-08
   7.00000022E-03  -3.86965233E-08
   8.00000038E-03  -3.89439130E-08
   8.99999961E-03  -3.61837635E-08
   9.99999978E-03  -3.04774836E-08
   1.09999999E-02  -2.20871446E-08
   1.20000001E-02  -1.14666321E-08
   1.30000003E-02   7.48714646E-10
   1.40000004E-02   1.37584033E-08
   1.49999997E-02   2.66266689E-08
   1.60000008E-02   3.83333969E-08
   1.70000009E-02   4.78496212E-08
   1.79999992E-02   5.42343379E-08
   1.89999994E-02   5.67417864E-08
   1.99999996E-02   5.49222570E-08
   2.09999997E-02   4.86974940E-08
   2.19999999E-02   3.83944005E-08
   2.30000000E-02   2.47281697E-08
   2.40000002E-02   8.73592576E-09
   2.50000004E-02  -8.32789659E-09
   2.60000005E-02  -2.51159520E-08
   2.70000007E-02  -4.03111891E-08
   2.80000009E-02  -5.27307584E-08
   2.89999992E-02  -6.13997670E-08
   2.99999993E-02  -6.55932197E-08
   3.09999995E-02  -6.48529124E-08
   3.20000015E-02  -5.89906364E-08
   3.29999998E-02  -4.80893156E-08
   3.40000018E-02  -3.25085381E-08
   3.50000001E-02  -1.28935556E-08
   3.59999985E-02   9.82125403E-09
   3.70000005E-02   3.44283606E-08
   3.79999988E-02   5.94966139E-08
   3.90000008E-02   8.34630569E-08
   3.99999991E-02   1.04765846E-07
   4.10000011E-02   1.22005602E-07
   4.19999994E-02   1.34112284E-07
   4.30000015E-02   1.40489334E-07
   4.39999998E-02   1.41107961E-07
   4.50000018E-02   1.36531980E-07
   4.60000001E-02   1.27866969E-07
   4.69999984E-02   1.16642035E-07
   4.80000004E-02   1.04645842E-07
   4.89999987E-02   9.37463724E-08
   5.00000007E-02   8.57254108E-08
   5.09999990E-02   8.21524537E-08
   5.20000011E-02   8.43115444E-08
   5.29999994E-02   9.31807733E-08
   5.40000014E-02   1.09451925E-07
   5.49999997E-02   1.33570097E-07
   5.60000017E-02   1.65771780E-07
   5.70000000E-02   2.06105170E-07
   5.79999983E-02   2.54426595E-07
   5.90000004E-02   3.10378738E-07
   5.99999987E-02   3.73366731E-07
   6.10000007E-02   4.42553130E-07
   6.19999990E-02   5.16891760E-07
   6.30000010E-02   5.95212612E-07
   6.40000030E-02   6.76357217E-07
   6.49999976E-02   7.59350712E-07
   6.59999996E-02   8.43584246E-07
   6.70000017E-02   9.28975396E-07
   6.80000037E-02   1.01607623E-06
   6.89999983E-02   1.10610586E-06
   7.00000003E-02   1.20089908E-06
   7.10000023E-02   1.30277840E-06
   7.19999969E-02   1.41437204E-06
   7.29999989E-02   1.53840892E-06
   7.40000010E-02   1.67752501E-06
   7.50000030E-02   1.83410884E-06
   7.59999976E-02   2.01020634E-06
   7.69999996E-02   2.20748643E-06
   7.80000016E-02   2.42726242E-06
   7.90000036E-02   2.67055043E-06
   7.99999982E-02   2.93814333E-06
   8.10000002E-02   3.23068639E-06
   8.20000023E-02   3.54874032E-06
   8.29999968E-02   3.89283241E-06
   8.39999989E-02   4.26349879E-06
   8.50000009E-02   4.66133224E-06
   8.60000029E-02   5.08703533E-06
   8.69999975E-02   5.54149165E-06
   8.79999995E-02   6.02584441E-06
   8.90000015E-02   6.54157884E-06
   9.00000036E-02   7.09058986E-06
   9.09999982E-02   7.67522397E-06
   9.20000002E-02   8.29827968E-06
   9.30000022E-02   8.96297388E-06
   9.39999968E-02   9.67286633E-06
   9.49999988E-02   1.04317533E-05
   9.60000008E-02   1.12435482E-05
   9.70000029E-02   1.21121693E-05
   9.79999974E-02   1.30414228E-05
   9.89999995E-02   1.40349084E-05
  0.100000001       1.50959459E-05
  0.101000004       1.62275246E-05
  0.101999998       1.74322740E-05
  0.103000000       1.87124660E-05
  0.104000002       2.00700524E-05
  0.104999997       2.15067394E-05
  0.105999999       2.30240948E-05
  0.107000001       2.46236741E-05
  0.108000003       2.63071634E-05
  0.108999997       2.80765034E-05
  0.109999999       2.99339627E-05
  0.111000001       3.18821658E-05
  0.112000003       3.39240542E-05
  0.112999998       3.60627819E-05
  0.114000000       3.83015904E-05
  0.115000002       4.06436811E-05
  0.115999997       4.30921245E-05
  0.116999999       4.56498201E-05
  0.118000001       4.83195145E-05
  0.119000003       5.11038706E-05
  0.119999997       5.40055298E-05
  0.120999999       5.70271513E-05
  0.122000001       6.01713764E-05
  0.123000003       6.34406897E-05
  0.123999998       6.68372231E-05
  0.125000000       7.03624683E-05
  0.126000002       7.40170799E-05
  0.127000004       7.78006870E-05
  0.128000006       8.17118926E-05
  0.128999993       8.57484192E-05
  0.129999995       8.99073639E-05
  0.130999997       9.41855615E-05
  0.131999999       9.85799124E-05
  0.133000001       1.03087645E-04
  0.134000003       1.07706350E-04
  0.135000005       1.12433903E-04
  0.136000007       1.17268180E-04
  0.136999995       1.22206737E-04
  0.137999997       1.27246472E-04
  0.138999999       1.32383444E-04
  0.140000001       1.37612820E-04
  0.141000003       1.42929101E-04
  0.142000005       1.48326377E-04
  0.143000007       1.53798712E-04
  0.143999994       1.59340329E-04
  0.144999996       1.64945712E-04
  0.145999998       1.70609404E-04
  0.147000000       1.76325600E-04
  0.148000002       1.82087620E-04
  0.149000004       1.87887475E-04
  0.150000006       1.93715561E-04
  0.150999993       1.99560585E-04
  0.151999995       2.05409917E-04
  0.152999997       2.11250124E-04
  0.153999999       2.17067602E-04
  0.155000001       2.22849194E-04
  0.156000003       2.28582605E-04
  0.157000005       2.34256469E-04
  0.158000007       2.39860048E-04
  0.158999994       2.45382776E-04
  0.159999996       2.50813580E-04
  0.160999998       2.56140571E-04
  0.162000000       2.61350680E-04
  0.163000003       2.66429939E-04
  0.164000005       2.71363970E-04
  0.165000007       2.76138569E-04
  0.165999994       2.80740322E-04
  0.166999996       2.85157294E-04
  0.167999998       2.89378775E-04
  0.169000000       2.93395249E-04
  0.170000002       2.97197577E-04
  0.171000004       3.00776243E-04
  0.172000006       3.04120680E-04
  0.172999993       3.07218812E-04
  0.173999995       3.10057105E-04
  0.174999997       3.12620949E-04
  0.175999999       3.14895500E-04
  0.177000001       3.16866499E-04
  0.178000003       3.18520964E-04
  0.179000005       3.19847721E-04
  0.180000007       3.20837251E-04
  0.180999994       3.21481493E-04
  0.181999996       3.21772939E-04
  0.182999998       3.21704167E-04
  0.184000000       3.21267231E-04
  0.185000002       3.20453604E-04
  0.186000004       3.19254410E-04
  0.187000006       3.17661092E-04
  0.187999994       3.15666199E-04
  0.188999996       3.13264027E-04
  0.189999998       3.10450909E-04
  0.191000000       3.07225186E-04
  0.192000002       3.03586799E-04
  0.193000004       2.99536536E-04
  0.194000006       2.95075064E-04
  0.194999993       2.90202326E-04
  0.195999995       2.84917187E-04
  0.196999997       2.79217464E-04
  0.197999999       2.73100450E-04
  0.199000001       2.66563671E-04
  0.200000003       2.59605411E-04
  0.201000005       2.52225524E-04
  0.202000007       2.44425406E-04
  0.202999994       2.36207867E-04
  0.203999996       2.27576616E-04
  0.204999998       2.18535628E-04
  0.206000000       2.09088539E-04
  0.207000002       1.99238420E-04
  0.208000004       1.88987717E-04
  0.209000006       1.78338712E-04
  0.209999993       1.67294187E-04
  0.210999995       1.55858055E-04
  0.211999997       1.44035919E-04
  0.213000000       1.31835259E-04
  0.214000002       1.19265234E-04
  0.215000004       1.06336156E-04
  0.216000006       9.30588212E-05
  0.216999993       7.94437656E-05
  0.217999995       6.55006806E-05
  0.218999997       5.12381375E-05
  0.219999999       3.66637541E-05
  0.221000001       2.17845591E-05
  0.222000003       6.60763590E-06
  0.223000005      -8.85924601E-06
  0.224000007      -2.46071868E-05
  0.224999994      -4.06259751E-05
  0.225999996      -5.69042350E-05
  0.226999998      -7.34299028E-05
  0.228000000      -9.01906824E-05
  0.229000002      -1.07174586E-04
  0.230000004      -1.24370141E-04
  0.231000006      -1.41766373E-04
  0.231999993      -1.59352305E-04
  0.232999995      -1.77116381E-04
  0.233999997      -1.95045737E-04
  0.234999999      -2.13125619E-04
  0.236000001      -2.31339043E-04
  0.237000003      -2.49666802E-04
  0.238000005      -2.68087926E-04
  0.238999993      -2.86580238E-04
  0.239999995      -3.05121212E-04
  0.240999997      -3.23688408E-04
  0.241999999      -3.42260086E-04
  0.243000001      -3.60814884E-04
  0.244000003      -3.79331759E-04
  0.245000005      -3.97788972E-04
  0.246000007      -4.16163704E-04
  0.246999994      -4.34431597E-04
  0.247999996      -4.52566484E-04
  0.248999998      -4.70540603E-04
  0.250000000      -4.88325080E-04
  0.250999987      -5.05890464E-04
  0.252000004      -5.23207244E-04
  0.252999991      -5.40246023E-04
  0.254000008      -5.56977466E-04
  0.254999995      -5.73371653E-04
  0.256000012      -5.89397736E-04
  0.256999999      -6.05023117E-04
  0.257999986      -6.20212755E-04
  0.259000003      -6.34929398E-04
  0.259999990      -6.49133697E-04
  0.261000007      -6.62785082E-04
  0.261999995      -6.75842515E-04
  0.263000011      -6.88265602E-04
  0.263999999      -7.00014993E-04
  0.264999986      -7.11052679E-04
  0.266000003      -7.21341697E-04
  0.266999990      -7.30845670E-04
  0.268000007      -7.39528157E-04
  0.268999994      -7.47352082E-04
  0.270000011      -7.54279492E-04
  0.270999998      -7.60271738E-04
  0.272000015      -7.65289995E-04
  0.273000002      -7.69296137E-04
  0.273999989      -7.72253727E-04
  0.275000006      -7.74128304E-04
  0.275999993      -7.74888205E-04
  0.277000010      -7.74504093E-04
  0.277999997      -7.72948959E-04
  0.279000014      -7.70197308E-04
  0.280000001      -7.66224694E-04
  0.280999988      -7.61007366E-04
  0.282000005      -7.54522160E-04
  0.282999992      -7.46746606E-04
  0.284000009      -7.37659517E-04
  0.284999996      -7.27241859E-04
  0.286000013      -7.15476985E-04
  0.287000000      -7.02351506E-04
  0.287999988      -6.87855703E-04
  0.289000005      -6.71983405E-04
  0.289999992      -6.54732226E-04
  0.291000009      -6.36103330E-04
  0.291999996      -6.16101373E-04
  0.293000013      -5.94734214E-04
  0.294000000      -5.72012912E-04
  0.294999987      -5.47951495E-04
  0.296000004      -5.22567250E-04
  0.296999991      -4.95880551E-04
  0.298000008      -4.67915175E-04
  0.298999995      -4.38698509E-04
  0.300000012      -4.08261811E-04
  0.300999999      -3.76640499E-04
  0.301999986      -3.43874359E-04
  0.303000003      -3.10007395E-04
  0.303999990      -2.75087514E-04
  0.305000007      -2.39166126E-04
  0.305999994      -2.02297728E-04
  0.307000011      -1.64539058E-04
  0.307999998      -1.25948543E-04
  0.308999985      -8.65859765E-05
  0.310000002      -4.65124212E-05
  0.310999990      -5.79083689E-06
  0.312000006       3.55135089E-05
  0.312999994       7.73323191E-05
  0.314000010       1.19593678E-04
  0.314999998       1.62221782E-04
  0.316000015       2.05137098E-04
  0.317000002       2.48257304E-04
  0.317999989       2.91498029E-04
  0.319000006       3.34774377E-04
  0.319999993       3.78001831E-04
  0.321000010       4.21096920E-04
  0.321999997       4.63977398E-04
  0.323000014       5.06561715E-04
  0.324000001       5.48768556E-04
  0.324999988       5.90515789E-04
  0.326000005       6.31719828E-04
  0.326999992       6.72296155E-04
  0.328000009       7.12159672E-04
  0.328999996       7.51225860E-04
  0.330000013       7.89412297E-04
  0.331000000       8.26639938E-04
  0.331999987       8.62834044E-04
  0.333000004       8.97924532E-04
  0.333999991       9.31845803E-04
  0.335000008       9.64535633E-04
  0.335999995       9.95934592E-04
  0.337000012       1.02598488E-03
  0.338000000       1.05463003E-03
  0.338999987       1.08181476E-03
  0.340000004       1.10748643E-03
  0.340999991       1.13159558E-03
  0.342000008       1.15409761E-03
  0.342999995       1.17495353E-03
  0.344000012       1.19413075E-03
  0.344999999       1.21160247E-03
  0.345999986       1.22734706E-03
  0.347000003       1.24134694E-03
  0.347999990       1.25358731E-03
  0.349000007       1.26405584E-03
  0.349999994       1.27274205E-03
  0.351000011       1.27963827E-03
  0.351999998       1.28474052E-03
  0.352999985       1.28805020E-03
  0.354000002       1.28957501E-03
  0.354999989       1.28933007E-03
  0.356000006       1.28733832E-03
  0.356999993       1.28362887E-03
  0.358000010       1.27823628E-03
  0.358999997       1.27119862E-03
  0.360000014       1.26255606E-03
  0.361000001       1.25234993E-03
  0.361999989       1.24062214E-03
  0.363000005       1.22741587E-03
  0.363999993       1.21277629E-03
  0.365000010       1.19675219E-03
  0.365999997       1.17939606E-03
  0.367000014       1.16076495E-03
  0.368000001       1.14091963E-03
  0.368999988       1.11992413E-03
  0.370000005       1.09784375E-03
  0.370999992       1.07474450E-03
  0.372000009       1.05069159E-03
  0.372999996       1.02574879E-03
  0.374000013       9.99979326E-04
  0.375000000       9.73446295E-04
  0.375999987       9.46213957E-04
  0.377000004       9.18348494E-04
  0.377999991       8.89918534E-04
  0.379000008       8.60994682E-04
  0.379999995       8.31648940E-04
  0.381000012       8.01953196E-04
  0.381999999       7.71977822E-04
  0.382999986       7.41790631E-04
  0.384000003       7.11455941E-04
  0.384999990       6.81034755E-04
  0.386000007       6.50585280E-04
  0.386999995       6.20163861E-04
  0.388000011       5.89825504E-04
  0.388999999       5.59624750E-04
  0.389999986       5.29615500E-04
  0.391000003       4.99850838E-04
  0.391999990       4.70381870E-04
  0.393000007       4.41256765E-04
  0.393999994       4.12520079E-04
  0.395000011       3.84212210E-04
  0.395999998       3.56369594E-04
  0.397000015       3.29025148E-04
  0.398000002       3.02209228E-04
  0.398999989       2.75950559E-04
  0.400000006       2.50276789E-04
  0.400999993       2.25214681E-04
  0.402000010       2.00789989E-04
  0.402999997       1.77026828E-04
  0.404000014       1.53946778E-04
  0.405000001       1.31568289E-04
  0.405999988       1.09906221E-04
  0.407000005       8.89718794E-05
  0.407999992       6.87734137E-05
  0.409000009       4.93165899E-05
  0.409999996       3.06056136E-05
  0.411000013       1.26437972E-05
  0.412000000      -4.56612770E-06
  0.412999988      -2.10221569E-05
  0.414000005      -3.67234206E-05
  0.414999992      -5.16708205E-05
  0.416000009      -6.58678036E-05
  0.416999996      -7.93207873E-05
  0.418000013      -9.20392486E-05
  0.419000000      -1.04035469E-04
  0.419999987      -1.15323841E-04
  0.421000004      -1.25920007E-04
  0.421999991      -1.35840048E-04
  0.423000008      -1.45099781E-04
  0.423999995      -1.53714456E-04
  0.425000012      -1.61698728E-04
  0.425999999      -1.69066901E-04
  0.426999986      -1.75833324E-04
  0.428000003      -1.82012795E-04
  0.428999990      -1.87620899E-04
  0.430000007      -1.92674081E-04
  0.430999994      -1.97189598E-04
  0.432000011      -2.01185336E-04
  0.432999998      -2.04679542E-04
  0.433999985      -2.07690624E-04
  0.435000002      -2.10236947E-04
  0.435999990      -2.12336847E-04
  0.437000006      -2.14008614E-04
  0.437999994      -2.15270571E-04
  0.439000010      -2.16141110E-04
  0.439999998      -2.16638568E-04
  0.441000015      -2.16781176E-04
  0.442000002      -2.16586821E-04
  0.442999989      -2.16072935E-04
  0.444000006      -2.15256397E-04
  0.444999993      -2.14153624E-04
  0.446000010      -2.12780651E-04
  0.446999997      -2.11153339E-04
  0.448000014      -2.09287537E-04
  0.449000001      -2.07199089E-04
  0.449999988      -2.04903743E-04
  0.451000005      -2.02416806E-04
  0.451999992      -1.99752802E-04
  0.453000009      -1.96925088E-04
  0.453999996      -1.93945612E-04
  0.455000013      -1.90824911E-04
  0.456000000      -1.87572281E-04
  0.456999987      -1.84196266E-04
  0.458000004      -1.80705087E-04
  0.458999991      -1.77107067E-04
  0.460000008      -1.73410968E-04
  0.460999995      -1.69626175E-04
  0.462000012      -1.65762365E-04
  0.463000000      -1.61829288E-04
  0.463999987      -1.57836315E-04
  0.465000004      -1.53792062E-04
  0.465999991      -1.49704356E-04
  0.467000008      -1.45580154E-04
  0.467999995      -1.41425990E-04
  0.469000012      -1.37248251E-04
  0.469999999      -1.33053603E-04
  0.470999986      -1.28849118E-04
  0.472000003      -1.24642218E-04
  0.472999990      -1.20440287E-04
  0.474000007      -1.16250143E-04
  0.474999994      -1.12077447E-04
  0.476000011      -1.07926287E-04
  0.476999998      -1.03799000E-04
  0.477999985      -9.96964809E-05
  0.479000002      -9.56186777E-05
  0.479999989      -9.15652927E-05
  0.481000006      -8.75365367E-05
  0.481999993      -8.35337632E-05
  0.483000010      -7.95596861E-05
  0.483999997      -7.56181762E-05
  0.485000014      -7.17138173E-05
  0.486000001      -6.78511497E-05
  0.486999989      -6.40339858E-05
  0.488000005      -6.02649634E-05
  0.488999993      -5.65454102E-05
  0.490000010      -5.28756827E-05
  0.490999997      -4.92557410E-05
  0.492000014      -4.56857779E-05
  0.493000001      -4.21668119E-05
  0.493999988      -3.87010259E-05
  0.495000005      -3.52915922E-05
  0.495999992      -3.19422252E-05
  0.497000009      -2.86563918E-05
  0.497999996      -2.54365841E-05
  0.499000013      -2.22837043E-05
  0.500000000      -1.91968702E-05
  0.500999987      -1.61736825E-05
  0.501999974      -1.32109153E-05
  0.503000021      -1.03053353E-05
  0.504000008      -7.45459829E-06
  0.504999995      -4.65772519E-06
  0.505999982      -1.91526442E-06
  0.507000029       7.71085467E-07
  0.508000016       3.39916824E-06
  0.509000003       5.96717064E-06
  0.509999990       8.47427782E-06
  0.510999978       1.09210787E-05
  0.512000024       1.33094336E-05
  0.513000011       1.56419646E-05
  0.513999999       1.79213166E-05
  0.514999986       2.01494058E-05
  0.515999973       2.23268689E-05
  0.517000020       2.44528565E-05
  0.518000007       2.65254312E-05
  0.518999994       2.85422102E-05
  0.519999981       3.05012018E-05
  0.521000028       3.24015273E-05
  0.522000015       3.42438543E-05
  0.523000002       3.60303275E-05
  0.523999989       3.77641518E-05
  0.524999976       3.94488816E-05
  0.526000023       4.10877365E-05
  0.527000010       4.26830920E-05
  0.527999997       4.42363416E-05
  0.528999984       4.57482056E-05
  0.529999971       4.72191568E-05
  0.531000018       4.86500430E-05
  0.532000005       5.00425194E-05
  0.532999992       5.13990744E-05
  0.533999979       5.27228003E-05
  0.535000026       5.40167348E-05
  0.536000013       5.52831661E-05
  0.537000000       5.65230912E-05
  0.537999988       5.77360152E-05
  0.538999975       5.89201809E-05
  0.540000021       6.00732201E-05
  0.541000009       6.11930082E-05
  0.541999996       6.22784428E-05
  0.542999983       6.33299496E-05
  0.544000030       6.43495587E-05
  0.545000017       6.53404204E-05
  0.546000004       6.63060928E-05
  0.546999991       6.72496608E-05
  0.547999978       6.81731108E-05
  0.549000025       6.90769884E-05
  0.550000012       6.99606389E-05
  0.550999999       7.08228326E-05
  0.551999986       7.16626309E-05
  0.552999973       7.24801212E-05
  0.554000020       7.32768749E-05
  0.555000007       7.40559408E-05
  0.555999994       7.48212915E-05
  0.556999981       7.55769361E-05
  0.558000028       7.63260250E-05
  0.559000015       7.70701299E-05
  0.560000002       7.78089525E-05
  0.560999990       7.85405937E-05
  0.561999977       7.92621795E-05
  0.563000023       7.99707996E-05
  0.564000010       8.06643875E-05
  0.564999998       8.13422448E-05
  0.565999985       8.20052373E-05
  0.566999972       8.26554096E-05
  0.568000019       8.32952937E-05
  0.569000006       8.39270870E-05
  0.569999993       8.45519171E-05
  0.570999980       8.51695004E-05
  0.572000027       8.57783016E-05
  0.573000014       8.63760433E-05
  0.574000001       8.69604482E-05
  0.574999988       8.75301484E-05
  0.575999975       8.80852531E-05
  0.577000022       8.86275811E-05
  0.578000009       8.91602758E-05
  0.578999996       8.96872007E-05
  0.579999983       9.02121028E-05
  0.580999970       9.07378417E-05
  0.582000017       9.12657779E-05
  0.583000004       9.17955840E-05
  0.583999991       9.23254920E-05
  0.584999979       9.28528825E-05
  0.586000025       9.33749907E-05
  0.587000012       9.38896337E-05
  0.588000000       9.43956475E-05
  0.588999987       9.48930247E-05
  0.589999974       9.53825875E-05
  0.591000021       9.58655583E-05
  0.592000008       9.63429266E-05
  0.592999995       9.68149689E-05
  0.593999982       9.72809576E-05
  0.595000029       9.77392701E-05
  0.596000016       9.81878184E-05
  0.597000003       9.86246087E-05
  0.597999990       9.90484186E-05
  0.598999977       9.94592265E-05
  0.600000024       9.98583928E-05
  0.601000011       1.00248471E-04
  0.601999998       1.00632802E-04
  0.602999985       1.01014797E-04
  0.603999972       1.01397258E-04
  0.605000019       1.01781807E-04
  0.606000006       1.02168597E-04
  0.606999993       1.02556391E-04
  0.607999980       1.02942897E-04
  0.609000027       1.03325299E-04
  0.610000014       1.03700848E-04
  0.611000001       1.04067425E-04
  0.611999989       1.04423743E-04
  0.612999976       1.04769366E-04
  0.614000022       1.05104533E-04
  0.615000010       1.05429746E-04
  0.615999997       1.05745414E-04
  0.616999984       1.06051586E-04
  0.617999971       1.06347848E-04
  0.619000018       1.06633488E-04
  0.620000005       1.06907617E-04
  0.620999992       1.07169632E-04
  0.621999979       1.07419342E-04
  0.623000026       1.07657244E-04
  0.624000013       1.07884502E-04
  0.625000000       1.08102795E-04
  0.625999987       1.08314016E-04
  0.626999974       1.08520027E-04
  0.628000021       1.08722343E-04
  0.629000008       1.08921937E-04
  0.629999995       1.09119101E-04
  0.630999982       1.09313478E-04
  0.632000029       1.09504173E-04
  0.633000016       1.09689965E-04
  0.634000003       1.09869557E-04
  0.634999990       1.10041801E-04
  0.635999978       1.10205910E-04
  0.637000024       1.10361601E-04
  0.638000011       1.10509078E-04
  0.638999999       1.10648914E-04
  0.639999986       1.10781832E-04
  0.640999973       1.10908448E-04
  0.642000020       1.11029105E-04
  0.643000007       1.11143709E-04
  0.643999994       1.11251713E-04
  0.644999981       1.11352383E-04
  0.646000028       1.11445042E-04
  0.647000015       1.11529545E-04
  0.648000002       1.11606583E-04
  0.648999989       1.11677815E-04
  0.649999976       1.11745743E-04
  0.651000023       1.11813388E-04
  0.652000010       1.11883695E-04
  0.652999997       1.11958921E-04
  0.653999984       1.12040107E-04
  0.654999971       1.12126778E-04
  0.656000018       1.12217109E-04
  0.657000005       1.12308400E-04
  0.657999992       1.12397829E-04
  0.658999979       1.12483212E-04
  0.660000026       1.12563604E-04
  0.661000013       1.12639485E-04
  0.662000000       1.12712507E-04
  0.662999988       1.12784932E-04
  0.663999975       1.12858725E-04
  0.665000021       1.12934853E-04
  0.666000009       1.13012815E-04
  0.666999996       1.13090704E-04
  0.667999983       1.13165712E-04
  0.669000030       1.13234921E-04
  0.670000017       1.13296330E-04
  0.671000004       1.13349670E-04
  0.671999991       1.13396694E-04
  0.672999978       1.13440903E-04
  0.674000025       1.13486771E-04
  0.675000012       1.13538590E-04
  0.675999999       1.13599373E-04
  0.676999986       1.13670008E-04
  0.677999973       1.13749033E-04
  0.679000020       1.13833092E-04
  0.680000007       1.13917900E-04
  0.680999994       1.13999457E-04
  0.681999981       1.14075156E-04
  0.683000028       1.14144583E-04
  0.684000015       1.14209521E-04
  0.685000002       1.14273389E-04
  0.685999990       1.14340124E-04
  0.686999977       1.14412956E-04
  0.688000023       1.14493356E-04
  0.689000010       1.14580464E-04
  0.689999998       1.14671217E-04
  0.690999985       1.14761111E-04
  0.691999972       1.14845403E-04
  0.693000019       1.14920455E-04
  0.694000006       1.14984832E-04
  0.694999993       1.15039751E-04
  0.695999980       1.15088886E-04