 -0.159999996       0.00000000    
 -0.158999994       0.00000000    
 -0.158000007       0.00000000    
 -0.157000005       0.00000000    
 -0.156000003       0.00000000    
 -0.155000001      -6.32837315E-21
 -0.153999999      -3.95661554E-20
 -0.152999997      -9.35250661E-20
 -0.151999995       1.87734488E-20
 -0.150999993       8.28497019E-19
 -0.150000006       2.87313141E-18
 -0.149000004       4.98235533E-18
 -0.148000002       6.57707228E-19
 -0.147000000      -2.62999412E-17
 -0.145999998      -1.02960891E-16
 -0.144999996      -2.59088320E-16
 -0.143999994      -5.04777850E-16
 -0.143000007      -7.96228335E-16
 -0.142000005      -1.00409001E-15
 -0.141000003      -9.10171842E-16
 -0.140000001      -2.59266780E-16
 -0.138999999       1.12485075E-15
 -0.137999997       3.18631243E-15
 -0.136999995       5.51433653E-15
 -0.136000007       7.33661992E-15
 -0.135000005       7.68573302E-15
 -0.134000003       5.71237707E-15
 -0.133000001       1.01253154E-15
 -0.131999999      -6.22924843E-15
 -0.130999997      -1.54253272E-14
 -0.129999995      -2.60383298E-14
 -0.128999993      -3.79392223E-14
 -0.128000006      -5.10780620E-14
 -0.127000004      -6.39571268E-14
 -0.126000002      -7.09749642E-14
 -0.125000000      -5.97593332E-14
 -0.123999998      -1.07612783E-14
 -0.123000003       9.80585310E-14
 -0.122000001       2.79475065E-13
 -0.120999999       5.18993052E-13
 -0.119999997       7.55874259E-13
 -0.119000003       8.73234970E-13
 -0.118000001       7.09858062E-13
 -0.116999999       1.04042595E-13
 -0.115999997      -1.02933710E-12
 -0.115000002      -2.60293545E-12
 -0.114000000      -4.27470689E-12
 -0.112999998      -5.42545219E-12
 -0.112000003      -5.24259108E-12
 -0.111000001      -2.93648396E-12
 -0.109999999       1.92656589E-12
 -0.108999997       9.04764458E-12
 -0.108000003       1.71030811E-11
 -0.107000001       2.36946608E-11
 -0.105999999       2.56806694E-11
 -0.104999997       1.99442025E-11
 -0.104000002       4.51594317E-12
 -0.103000000      -2.01979666E-11
 -0.101999998      -5.04747980E-11
 -0.101000004      -7.90690707E-11
 -0.100000001      -9.61079827E-11
  -9.89999995E-02  -9.12151327E-11
  -9.79999974E-02  -5.66206908E-11
  -9.70000029E-02   9.39688431E-12
  -9.60000008E-02   9.97234170E-11
  -9.49999988E-02   1.97375422E-10
  -9.39999968E-02   2.77112833E-10
  -9.30000022E-02   3.10039355E-10
  -9.20000002E-02   2.70716533E-10
  -9.09999982E-02   1.45426823E-10
  -9.00000036E-02  -6.04889056E-11
  -8.90000015E-02  -3.18560872E-10
  -8.79999995E-02  -5.78369241E-10
  -8.69999975E-02  -7.74938391E-10
  -8.60000029E-02  -8.41799075E-10
  -8.50000009E-02  -7.27499450E-10
  -8.39999989E-02  -4.11962298E-10
  -8.29999968E-02   8.15669615E-11
  -8.20000023E-02   6.82860879E-10
  -8.10000002E-02   1.28174937E-09
  -7.99999982E-02   1.74595072E-09
  -7.90000036E-02   1.94711358E-09
  -7.80000016E-02   1.79012516E-09
  -7.69999996E-02   1.23931465E-09
  -7.59999976E-02   3.35164396E-10
  -7.50000030E-02  -8.03352551E-10
  -7.40000010E-02  -1.99289185E-09
  -7.29999989E-02  -3.01490410E-09
  -7.19999969E-02  -3.65503028E-09
  -7.10000023E-02  -3.74536402E-09
  -7.00000003E-02  -3.20115978E-09
  -6.89999983E-02  -2.04424944E-09
  -6.80000037E-02  -4.07739731E-10
  -6.70000017E-02   1.47995516E-09
  -6.59999996E-02   3.32975914E-09
  -6.49999976E-02   4.83963447E-09
  -6.40000030E-02   5.74706283E-09
  -6.30000010E-02   5.87684434E-09
  -6.19999990E-02   5.17522958E-09
  -6.10000007E-02   3.72348041E-09
  -5.99999987E-02   1.72734949E-09
  -5.90000004E-02  -5.16815757E-10
  -5.79999983E-02  -2.67424372E-09
  -5.70000000E-02  -4.43321246E-09
  -5.60000017E-02  -5.56426283E-09
  -5.49999997E-02  -5.96492900E-09
  -5.40000014E-02  -5.67948621E-09
  -5.29999994E-02  -4.88734031E-09
  -5.20000011E-02  -3.85981247E-09
  -5.09999990E-02  -2.89212720E-09
  -5.00000007E-02  -2.22400232E-09
  -4.89999987E-02  -1.96668948E-09
  -4.80000004E-02  -2.05519868E-09
  -4.69999984E-02  -2.24096741E-09
  -4.60000001E-02  -2.13257279E-09
  -4.50000018E-02  -1.28151212E-09
  -4.39999998E-02   7.01179170E-10
  -4.30000015E-02   4.02094669E-09
  -4.19999994E-02   8.59655458E-09
  -4.10000011E-02   1.40044456E-08
  -3.99999991E-02   1.94894447E-08
  -3.90000008E-02   2.40476687E-08
  -3.79999988E-02   2.65722413E-08
  -3.70000005E-02   2.60381832E-08
  -3.59999985E-02   2.16930918E-08
  -3.50000001E-02   1.32171811E-08
  -3.40000018E-02   8.20672919E-10
  -3.29999998E-02  -1.47425645E-08
  -3.20000015E-02  -3.22512683E-08
  -3.09999995E-02  -5.01733588E-08
  -2.99999993E-02  -6.68798918E-08
  -2.89999992E-02  -8.08846892E-08
  -2.80000009E-02  -9.10748383E-08
  -2.70000007E-02  -9.68996829E-08
  -2.60000005E-02  -9.84921087E-08
  -2.50000004E-02  -9.67051008E-08
  -2.40000002E-02  -9.30564141E-08
  -2.30000000E-02  -8.95843897E-08
  -2.19999999E-02  -8.86280276E-08
  -2.09999997E-02  -9.25537194E-08
  -1.99999996E-02  -1.03460124E-07
  -1.89999994E-02  -1.22899309E-07
  -1.79999992E-02  -1.51655811E-07
  -1.70000009E-02  -1.89623393E-07
  -1.60000008E-02  -2.35810091E-07
  -1.49999997E-02  -2.88485751E-07
  -1.40000004E-02  -3.45464201E-07
  -1.30000003E-02  -4.04486883E-07
  -1.20000001E-02  -4.63652668E-07
  -1.09999999E-02  -5.21823893E-07
  -9.99999978E-03  -5.78936238E-07
  -8.99999961E-03  -6.36151924E-07
  -8.00000038E-03  -6.95822280E-07
  -7.00000022E-03  -7.61258264E-07
  -6.00000005E-03  -8.36347624E-07
  -4.99999989E-03  -9.25085828E-07
  -4.00000019E-03  -1.03110801E-06
  -3.00000003E-03  -1.15731098E-06
  -2.00000009E-03  -1.30563728E-06
  -1.00000005E-03  -1.47706112E-06
   0.00000000      -1.67177757E-06
   1.00000005E-03  -1.88955676E-06
   2.00000009E-03  -2.13019121E-06
   3.00000003E-03  -2.39395035E-06
   4.00000019E-03  -2.68195777E-06
   4.99999989E-03  -2.99642238E-06
   6.00000005E-03  -3.34069227E-06
   7.00000022E-03  -3.71913461E-06
   8.00000038E-03  -4.13688031E-06
   8.99999961E-03  -4.59950115E-06
   9.99999978E-03  -5.11269536E-06
   1.09999999E-02  -5.68205314E-06
   1.20000001E-02  -6.31295052E-06
   1.30000003E-02  -7.01058843E-06
   1.40000004E-02  -7.78015692E-06
   1.49999997E-02  -8.62707930E-06
   1.60000008E-02  -9.55727501E-06
   1.70000009E-02  -1.05773761E-05
   1.79999992E-02  -1.16948504E-05
   1.89999994E-02  -1.29180225E-05
   1.99999996E-02  -1.42560066E-05
   2.09999997E-02  -1.57185950E-05
   2.19999999E-02  -1.73161661E-05
   2.30000000E-02  -1.90596656E-05
   2.40000002E-02  -2.09606933E-05
   2.50000004E-02  -2.30316891E-05
   2.60000005E-02  -2.52861882E-05
   2.70000007E-02  -2.77390627E-05
   2.80000009E-02  -3.04066853E-05
   2.89999992E-02  -3.33069474E-05
   2.99999993E-02  -3.64591106E-05
   3.09999995E-02  -3.98835036E-05
   3.20000015E-02  -4.36011360E-05
   3.29999998E-02  -4.76333589E-05
   3.40000018E-02  -5.20016292E-05
   3.50000001E-02  -5.67274910E-05
   3.59999985E-02  -6.18328340E-05
   3.70000005E-02  -6.73403338E-05
   3.79999988E-02  -7.32740373E-05
   3.90000008E-02  -7.96599852E-05
   3.99999991E-02  -8.65266702E-05
   4.10000011E-02  -9.39052989E-05
   4.19999994E-02  -1.01829755E-04
   4.30000015E-02  -1.10336332E-04
   4.39999998E-02  -1.19463228E-04
   4.50000018E-02  -1.29250024E-04
   4.60000001E-02  -1.39737167E-04
   4.69999984E-02  -1.50965599E-04
   4.80000004E-02  -1.62976692E-04
   4.89999987E-02  -1.75812223E-04
   5.00000007E-02  -1.89514671E-04
   5.09999990E-02  -2.04127587E-04
   5.20000011E-02  -2.19695867E-04
   5.29999994E-02  -2.36266133E-04
   5.40000014E-02  -2.53886945E-04
   5.49999997E-02  -2.72608857E-04
   5.60000017E-02  -2.92484416E-04
   5.70000000E-02  -3.13568133E-04
   5.79999983E-02  -3.35916237E-04
   5.90000004E-02  -3.59586498E-04
   5.99999987E-02  -3.84637940E-04
   6.10000007E-02  -4.11130546E-04
   6.19999990E-02  -4.39124909E-04
   6.30000010E-02  -4.68682032E-04
   6.40000030E-02  -4.99863061E-04
   6.49999976E-02  -5.32728969E-04
   6.59999996E-02  -5.67340641E-04
   6.70000017E-02  -6.03758846E-04
   6.80000037E-02  -6.42044062E-04
   6.89999983E-02  -6.82256883E-04
   7.00000003E-02  -7.24457961E-04
   7.10000023E-02  -7.68707716E-04
   7.19999969E-02  -8.15066567E-04
   7.29999989E-02  -8.63594469E-04
   7.40000010E-02  -9.14350618E-04
   7.50000030E-02  -9.67393513E-04
   7.59999976E-02  -1.02278043E-03
   7.69999996E-02  -1.08056737E-03
   7.80000016E-02  -1.14080904E-03
   7.90000036E-02  -1.20355852E-03
   7.99999982E-02  -1.26886764E-03
   8.10000002E-02  -1.33678631E-03
   8.20000023E-02  -1.40736252E-03
   8.29999968E-02  -1.48064189E-03
   8.39999989E-02  -1.55666750E-03
   8.50000009E-02  -1.63547916E-03
   8.60000029E-02  -1.71711354E-03
   8.69999975E-02  -1.80160359E-03
   8.79999995E-02  -1.88897911E-03
   8.90000015E-02  -1.97926629E-03
   9.00000036E-02  -2.07248796E-03
   9.09999982E-02  -2.16866354E-03
   9.20000002E-02  -2.26780912E-03
   9.30000022E-02  -2.36993725E-03
   9.39999968E-02  -2.47505680E-03
   9.49999988E-02  -2.58317194E-03
   9.60000008E-02  -2.69428315E-03
   9.70000029E-02  -2.80838576E-03
   9.79999974E-02  -2.92547024E-03
   9.89999995E-02  -3.04552331E-03
  0.100000001      -3.16852704E-03
  0.101000004      -3.29445978E-03
  0.101999998      -3.42329522E-03
  0.103000000      -3.55500425E-03
  0.104000002      -3.68955336E-03
  0.104999997      -3.82690458E-03
  0.105999999      -3.96701647E-03
  0.107000001      -4.10984270E-03
  0.108000003      -4.25533298E-03
  0.108999997      -4.40343283E-03
  0.109999999      -4.55408450E-03
  0.111000001      -4.70722560E-03
  0.112000003      -4.86279093E-03
  0.112999998      -5.02071157E-03
  0.114000000      -5.18091489E-03
  0.115000002      -5.34332450E-03
  0.115999997      -5.50786080E-03
  0.116999999      -5.67444135E-03
  0.118000001      -5.84297953E-03
  0.119000003      -6.01338735E-03
  0.119999997      -6.18557399E-03
  0.120999999      -6.35944726E-03
  0.122000001      -6.53491355E-03
  0.123000003      -6.71187835E-03
  0.123999998      -6.89024478E-03
  0.125000000      -7.06991600E-03
  0.126000002      -7.25079328E-03
  0.127000004      -7.43277604E-03
  0.128000006      -7.61576137E-03
  0.128999993      -7.79964542E-03
  0.129999995      -7.98432156E-03
  0.130999997      -8.16968270E-03
  0.131999999      -8.35561939E-03
  0.133000001      -8.54202267E-03
  0.134000003      -8.72878172E-03
  0.135000005      -8.91578663E-03
  0.136000007      -9.10292566E-03
  0.136999995      -9.29008704E-03
  0.137999997      -9.47716087E-03
  0.138999999      -9.66403354E-03
  0.140000001      -9.85059328E-03
  0.141000003      -1.00367246E-02
  0.142000005      -1.02223130E-02
  0.143000007      -1.04072420E-02
  0.143999994      -1.05913915E-02
  0.144999996      -1.07746432E-02
  0.145999998      -1.09568760E-02
  0.147000000      -1.11379689E-02
  0.148000002      -1.13178007E-02
  0.149000004      -1.14962514E-02
  0.150000006      -1.16731999E-02
  0.150999993      -1.18485242E-02
  0.151999995      -1.20221023E-02
  0.152999997      -1.21938083E-02
  0.153999999      -1.23635177E-02
  0.155000001      -1.25310998E-02
  0.156000003      -1.26964254E-02
  0.157000005      -1.28593585E-02
  0.158000007      -1.30197629E-02
  0.158999994      -1.31775020E-02
  0.159999996      -1.33324359E-02
  0.160999998      -1.34844249E-02
  0.162000000      -1.36333304E-02
  0.163000003      -1.37790125E-02
  0.164000005      -1.39213307E-02
  0.165000007      -1.40601443E-02
  0.165999994      -1.41953118E-02
  0.166999996      -1.43266907E-02
  0.167999998      -1.44541366E-02
  0.169000000      -1.45775052E-02
  0.170000002      -1.46966511E-02
  0.171000004      -1.48114320E-02
  0.172000006      -1.49217034E-02
  0.172999993      -1.50273247E-02
  0.173999995      -1.51281562E-02
  0.174999997      -1.52240600E-02
  0.175999999      -1.53149012E-02
  0.177000001      -1.54005457E-02
  0.178000003      -1.54808629E-02
  0.179000005      -1.55557245E-02
  0.180000007      -1.56250075E-02
  0.180999994      -1.56885907E-02
  0.181999996      -1.57463588E-02
  0.182999998      -1.57981981E-02
  0.184000000      -1.58440061E-02
  0.185000002      -1.58836823E-02
  0.186000004      -1.59171335E-02
  0.187000006      -1.59442741E-02
  0.187999994      -1.59650315E-02
  0.188999996      -1.59793328E-02
  0.189999998      -1.59871206E-02
  0.191000000      -1.59883443E-02
  0.192000002      -1.59829594E-02
  0.193000004      -1.59709323E-02
  0.194000006      -1.59522425E-02
  0.194999993      -1.59268733E-02
  0.195999995      -1.58948172E-02
  0.196999997      -1.58560816E-02
  0.197999999      -1.58106815E-02
  0.199000001      -1.57586467E-02
  0.200000003      -1.57000180E-02
  0.201000005      -1.56348478E-02
  0.202000007      -1.55632040E-02
  0.202999994      -1.54851675E-02
  0.203999996      -1.54008307E-02
  0.204999998      -1.53103005E-02
  0.206000000      -1.52136935E-02
  0.207000002      -1.51111390E-02
  0.208000004      -1.50027741E-02
  0.209000006      -1.48887485E-02
  0.209999993      -1.47692189E-02
  0.210999995      -1.46443518E-02
  0.211999997      -1.45143233E-02
  0.213000000      -1.43793207E-02
  0.214000002      -1.42395403E-02
  0.215000004      -1.40951890E-02
  0.216000006      -1.39464848E-02
  0.216999993      -1.37936547E-02
  0.217999995      -1.36369355E-02
  0.218999997      -1.34765748E-02
  0.219999999      -1.33128269E-02
  0.221000001      -1.31459534E-02
  0.222000003      -1.29762180E-02
  0.223000005      -1.28038926E-02
  0.224000007      -1.26292501E-02
  0.224999994      -1.24525623E-02
  0.225999996      -1.22741051E-02
  0.226999998      -1.20941522E-02
  0.228000000      -1.19129773E-02
  0.229000002      -1.17308563E-02
  0.230000004      -1.15480619E-02
  0.231000006      -1.13648688E-02
  0.231999993      -1.11815510E-02
  0.232999995      -1.09983804E-02
  0.233999997      -1.08156288E-02
  0.234999999      -1.06335627E-02
  0.236000001      -1.04524437E-02
  0.237000003      -1.02725280E-02
  0.238000005      -1.00940680E-02
  0.238999993      -9.91730485E-03
  0.239999995      -9.74247511E-03
  0.240999997      -9.56980418E-03
  0.241999999      -9.39951185E-03
  0.243000001      -9.23180580E-03
  0.244000003      -9.06688627E-03
  0.245000005      -8.90494231E-03
  0.246000007      -8.74615368E-03
  0.246999994      -8.59068986E-03
  0.247999996      -8.43870919E-03
  0.248999998      -8.29036068E-03
  0.250000000      -8.14578030E-03
  0.250999987      -8.00509565E-03
  0.252000004      -7.86842126E-03
  0.252999991      -7.73585914E-03
  0.254000008      -7.60750100E-03
  0.254999995      -7.48342602E-03
  0.256000012      -7.36370031E-03
  0.256999999      -7.24837976E-03
  0.257999986      -7.13750813E-03
  0.259000003      -7.03111757E-03
  0.259999990      -6.92923088E-03
  0.261000007      -6.83186110E-03
  0.261999995      -6.73901010E-03
  0.263000011      -6.65067136E-03
  0.263999999      -6.56682812E-03
  0.264999986      -6.48745522E-03
  0.266000003      -6.41251728E-03
  0.266999990      -6.34197146E-03
  0.268000007      -6.27576653E-03
  0.268999994      -6.21384382E-03
  0.270000011      -6.15613675E-03
  0.270999998      -6.10257406E-03
  0.272000015      -6.05307706E-03
  0.273000002      -6.00756193E-03
  0.273999989      -5.96593972E-03
  0.275000006      -5.92811499E-03
  0.275999993      -5.89398760E-03
  0.277000010      -5.86345373E-03
  0.277999997      -5.83640346E-03
  0.279000014      -5.81272366E-03
  0.280000001      -5.79229929E-03
  0.280999988      -5.77501114E-03
  0.282000005      -5.76073956E-03
  0.282999992      -5.74936438E-03
  0.284000009      -5.74076548E-03
  0.284999996      -5.73482178E-03
  0.286000013      -5.73141454E-03
  0.287000000      -5.73042501E-03
  0.287999988      -5.73173584E-03
  0.289000005      -5.73523110E-03
  0.289999992      -5.74079482E-03
  0.291000009      -5.74831245E-03
  0.291999996      -5.75766945E-03
  0.293000013      -5.76875266E-03
  0.294000000      -5.78144938E-03
  0.294999987      -5.79564832E-03
  0.296000004      -5.81124052E-03
  0.296999991      -5.82811981E-03
  0.298000008      -5.84618514E-03
  0.298999995      -5.86533779E-03
  0.300000012      -5.88548416E-03
  0.300999999      -5.90653485E-03
  0.301999986      -5.92840370E-03
  0.303000003      -5.95100690E-03
  0.303999990      -5.97426202E-03
  0.305000007      -5.99808805E-03
  0.305999994      -6.02240628E-03
  0.307000011      -6.04713988E-03
  0.307999998      -6.07221387E-03
  0.308999985      -6.09755842E-03
  0.310000002      -6.12310786E-03
  0.310999990      -6.14880212E-03
  0.312000006      -6.17458578E-03
  0.312999994      -6.20040810E-03
  0.314000010      -6.22622203E-03
  0.314999998      -6.25198288E-03
  0.316000015      -6.27764873E-03
  0.317000002      -6.30317815E-03
  0.317999989      -6.32853247E-03
  0.319000006      -6.35367353E-03
  0.319999993      -6.37856638E-03
  0.321000010      -6.40317798E-03
  0.321999997      -6.42747851E-03
  0.323000014      -6.45144191E-03
  0.324000001      -6.47504395E-03
  0.324999988      -6.49826275E-03
  0.326000005      -6.52107829E-03
  0.326999992      -6.54347334E-03
  0.328000009      -6.56543020E-03
  0.328999996      -6.58693304E-03
  0.330000013      -6.60796836E-03
  0.331000000      -6.62852358E-03
  0.331999987      -6.64858893E-03
  0.333000004      -6.66815741E-03
  0.333999991      -6.68722391E-03
  0.335000008      -6.70578424E-03
  0.335999995      -6.72383606E-03
  0.337000012      -6.74137846E-03
  0.338000000      -6.75841048E-03
  0.338999987      -6.77493121E-03
  0.340000004      -6.79094065E-03
  0.340999991      -6.80643972E-03
  0.342000008      -6.82142982E-03
  0.342999995      -6.83591422E-03
  0.344000012      -6.84989663E-03
  0.344999999      -6.86338358E-03
  0.345999986      -6.87638111E-03
  0.347000003      -6.88889623E-03
  0.347999990      -6.90093683E-03
  0.349000007      -6.91251084E-03
  0.349999994      -6.92362478E-03
  0.351000011      -6.93428610E-03
  0.351999998      -6.94450224E-03
  0.352999985      -6.95427973E-03
  0.354000002      -6.96362602E-03
  0.354999989      -6.97254715E-03
  0.356000006      -6.98105153E-03
  0.356999993      -6.98914705E-03
  0.358000010      -6.99684210E-03
  0.358999997      -7.00414553E-03
  0.360000014      -7.01106712E-03
  0.361000001      -7.01761805E-03
  0.361999989      -7.02380948E-03
  0.363000005      -7.02965260E-03
  0.363999993      -7.03515951E-03
  0.365000010      -7.04034092E-03
  0.365999997      -7.04520894E-03
  0.367000014      -7.04977429E-03
  0.368000001      -7.05404580E-03
  0.368999988      -7.05803372E-03
  0.370000005      -7.06174690E-03
  0.370999992      -7.06519233E-03
  0.372000009      -7.06837839E-03
  0.372999996      -7.07131205E-03
  0.374000013      -7.07400218E-03
  0.375000000      -7.07645528E-03
  0.375999987      -7.07868068E-03
  0.377000004      -7.08068814E-03
  0.377999991      -7.08248699E-03
  0.379000008      -7.08408840E-03
  0.379999995      -7.08550354E-03
  0.381000012      -7.08674267E-03
  0.381999999      -7.08781648E-03
  0.382999986      -7.08873337E-03
  0.384000003      -7.08950032E-03
  0.384999990      -7.09012430E-03
  0.386000007      -7.09060999E-03
  0.386999995      -7.09096249E-03
  0.388000011      -7.09118741E-03
  0.388999999      -7.09129032E-03
  0.389999986      -7.09127868E-03
  0.391000003      -7.09116040E-03
  0.391999990      -7.09094526E-03
  0.393000007      -7.09064258E-03
  0.393999994      -7.09026074E-03
  0.395000011      -7.08980719E-03
  0.395999998      -7.08928751E-03
  0.397000015      -7.08870683E-03
  0.398000002      -7.08806841E-03
  0.398999989      -7.08737457E-03
  0.400000006      -7.08662765E-03
  0.400999993      -7.08583137E-03
  0.402000010      -7.08498945E-03
  0.402999997      -7.08410610E-03
  0.404000014      -7.08318735E-03
  0.405000001      -7.08223786E-03
  0.405999988      -7.08126323E-03
  0.407000005      -7.08026811E-03
  0.407999992      -7.07925623E-03
  0.409000009      -7.07823038E-03
  0.409999996      -7.07719289E-03
  0.411000013      -7.07614515E-03
  0.412000000      -7.07508903E-03
  0.412999988      -7.07402546E-03
  0.414000005      -7.07295490E-03
  0.414999992      -7.07187923E-03
  0.416000009      -7.07079982E-03
  0.416999996      -7.06971763E-03
  0.418000013      -7.06863450E-03
  0.419000000      -7.06755137E-03
  0.419999987      -7.06647011E-03
  0.421000004      -7.06539117E-03
  0.421999991      -7.06431596E-03
  0.423000008      -7.06324540E-03
  0.423999995      -7.06217950E-03
  0.425000012      -7.06111966E-03
  0.425999999      -7.06006493E-03
  0.426999986      -7.05901533E-03
  0.428000003      -7.05797132E-03
  0.428999990      -7.05693243E-03
  0.430000007      -7.05590006E-03
  0.430999994      -7.05487514E-03
  0.432000011      -7.05385860E-03
  0.432999998      -7.05285138E-03
  0.433999985      -7.05185439E-03
  0.435000002      -7.05086766E-03
  0.435999990      -7.04989024E-03
  0.437000006      -7.04892119E-03
  0.437999994      -7.04795867E-03
  0.439000010      -7.04700127E-03
  0.439999998      -7.04604760E-03
  0.441000015      -7.04509672E-03
  0.442000002      -7.04414770E-03
  0.442999989      -7.04320194E-03
  0.444000006      -7.04225991E-03
  0.444999993      -7.04132346E-03
  0.446000010      -7.04039447E-03
  0.446999997      -7.03947432E-03
  0.448000014      -7.03856396E-03
  0.449000001      -7.03766383E-03
  0.449999988      -7.03677395E-03
  0.451000005      -7.03589339E-03
  0.451999992      -7.03501934E-03
  0.453000009      -7.03414995E-03
  0.453999996      -7.03328336E-03
  0.455000013      -7.03241769E-03
  0.456000000      -7.03155203E-03
  0.456999987      -7.03068683E-03
  0.458000004      -7.02982349E-03
  0.458999991      -7.02896388E-03
  0.460000008      -7.02811126E-03
  0.460999995      -7.02726701E-03
  0.462000012      -7.02643255E-03
  0.463000000      -7.02560786E-03
  0.463999987      -7.02479063E-03
  0.465000004      -7.02397851E-03
  0.465999991      -7.02316826E-03
  0.467000008      -7.02235708E-03
  0.467999995      -7.02154450E-03
  0.469000012      -7.02073099E-03
  0.469999999      -7.01991934E-03
  0.470999986      -7.01911282E-03
  0.472000003      -7.01831654E-03
  0.472999990      -7.01753423E-03
  0.474000007      -7.01676775E-03
  0.474999994      -7.01601757E-03
  0.476000011      -7.01528136E-03
  0.476999998      -7.01455586E-03
  0.477999985      -7.01383594E-03
  0.479000002      -7.01311743E-03
  0.479999989      -7.01239612E-03
  0.481000006      -7.01167062E-03
  0.481999993      -7.01094093E-03
  0.483000010      -7.01020844E-03
  0.483999997      -7.00947596E-03
  0.485000014      -7.00874766E-03
  0.486000001      -7.00802729E-03
  0.486999989      -7.00731808E-03
  0.488000005      -7.00662192E-03
  0.488999993      -7.00594019E-03
  0.490000010      -7.00527336E-03
  0.490999997      -7.00462051E-03
  0.492000014      -7.00398115E-03
  0.493000001      -7.00335437E-03
  0.493999988      -7.00273830E-03
  0.495000005      -7.00213155E-03
  0.495999992      -7.00153317E-03
  0.497000009      -7.00094225E-03
  0.497999996      -7.00035878E-03
  0.499000013      -6.99978415E-03
  0.500000000      -6.99921977E-03
  0.500999987      -6.99866749E-03
  0.501999974      -6.99812965E-03
  0.503000021      -6.99760811E-03
  0.504000008      -6.99710241E-03
  0.504999995      -6.99661253E-03
  0.505999982      -6.99613569E-03
  0.507000029      -6.99566910E-03
  0.508000016      -6.99520856E-03
  0.509000003      -6.99475128E-03
  0.509999990      -6.99429493E-03
  0.510999978      -6.99383859E-03
  0.512000024      -6.99338177E-03
  0.513000011      -6.99292682E-03
  0.513999999      -6.99247560E-03
  0.514999986      -6.99203135E-03
  0.515999973      -6.99159689E-03
  0.517000020      -6.99117361E-03
  0.518000007      -6.99076289E-03
  0.518999994      -6.99036475E-03
  0.519999981      -6.98997872E-03
  0.521000028      -6.98960293E-03
  0.522000015      -6.98923646E-03
  0.523000002      -6.98887696E-03
  0.523999989      -6.98852306E-03
  0.524999976      -6.98817428E-03
  0.526000023      -6.98782923E-03
  0.527000010      -6.98748743E-03
  0.527999997      -6.98714843E-03
  0.528999984      -6.98681129E-03
  0.529999971      -6.98647508E-03
  0.531000018      -6.98613888E-03
  0.532000005      -6.98580220E-03
  0.532999992      -6.98546367E-03
  0.533999979      -6.98512327E-03
  0.535000026      -6.98478101E-03
  0.536000013      -6.98443642E-03
  0.537000000      -6.98409090E-03
  0.537999988      -6.98374491E-03
  0.538999975      -6.98340125E-03
  0.540000021      -6.98306086E-03
  0.541000009      -6.98272604E-03
  0.541999996      -6.98239775E-03
  0.542999983      -6.98207738E-03
  0.544000030      -6.98176445E-03
  0.545000017      -6.98145945E-03
  0.546000004      -6.98116189E-03
  0.546999991      -6.98087085E-03
  0.547999978      -6.98058587E-03
  0.549000025      -6.98030740E-03
  0.550000012      -6.98003499E-03
  0.550999999      -6.97976910E-03
  0.551999986      -6.97950972E-03
  0.552999973      -6.97925640E-03
  0.554000020      -6.97900774E-03
  0.555000007      -6.97876280E-03
  0.555999994      -6.97851833E-03
  0.556999981      -6.97827293E-03
  0.558000028      -6.97802473E-03
  0.559000015      -6.97777281E-03
  0.560000002      -6.97751716E-03
  0.560999990      -6.97725965E-03
  0.561999977      -6.97700214E-03
  0.563000023      -6.97674742E-03
  0.564000010      -6.97649736E-03
  0.564999998      -6.97625475E-03
  0.565999985      -6.97602052E-03
  0.566999972      -6.97579561E-03
  0.568000019      -6.97557861E-03
  0.569000006      -6.97536999E-03
  0.569999993      -6.97516836E-03
  0.570999980      -6.97497325E-03
  0.572000027      -6.97478466E-03
  0.573000014      -6.97460258E-03
  0.574000001      -6.97442703E-03
  0.574999988      -6.97425799E-03
  0.575999975      -6.97409548E-03
  0.577000022      -6.97393855E-03
  0.578000009      -6.97378535E-03
  0.578999996      -6.97363401E-03
  0.579999983      -6.97348267E-03
  0.580999970      -6.97332993E-03
  0.582000017      -6.97317393E-03
  0.583000004      -6.97301421E-03
  0.583999991      -6.97285077E-03
  0.584999979      -6.97268359E-03
  0.586000025      -6.97251456E-03
  0.587000012      -6.97234599E-03
  0.588000000      -6.97217975E-03
  0.588999987      -6.97201816E-03
  0.589999974      -6.97186356E-03
  0.591000021      -6.97171828E-03
  0.592000008      -6.97158324E-03
  0.592999995      -6.97145984E-03
  0.593999982      -6.97134808E-03
  0.595000029      -6.97124749E-03
  0.596000016      -6.97115622E-03
  0.597000003      -6.97107287E-03
  0.597999990      -6.97099557E-03
  0.598999977      -6.97092200E-03
  0.600000024      -6.97085122E-03
  0.601000011      -6.97078183E-03
  0.601999998      -6.97071338E-03
  0.602999985      -6.97064679E-03
  0.603999972      -6.97058206E-03
  0.605000019      -6.97052106E-03
  0.606000006      -6.97046425E-03
  0.606999993      -6.97041256E-03
  0.607999980      -6.97036646E-03
  0.609000027      -6.97032502E-03
  0.610000014      -6.97028823E-03
  0.611000001      -6.97025424E-03
  0.611999989      -6.97022164E-03
  0.612999976      -6.97018905E-03
  0.614000022      -6.97015552E-03
  0.615000010      -6.97012106E-03
  0.615999997      -6.97008567E-03
  0.616999984      -6.97005121E-03
  0.617999971      -6.97001955E-03
  0.619000018      -6.96999393E-03
  0.620000005      -6.96997670E-03
  0.620999992      -6.96996972E-03
  0.621999979      -6.96997344E-03
  0.623000026      -6.96998648E-03
  0.624000013      -6.97000651E-03
  0.625000000      -6.97002979E-03
  0.625999987      -6.97005028E-03
  0.626999974      -6.97006332E-03
  0.628000021      -6.97006518E-03
  0.629000008      -6.97005261E-03
  0.629999995      -6.97002560E-03
  0.630999982      -6.96998602E-03
  0.632000029      -6.96993805E-03
  0.633000016      -6.96988590E-03
  0.634000003      -6.96983468E-03
  0.634999990      -6.96978904E-03
  0.635999978      -6.96975226E-03
  0.637000024      -6.96972571E-03
  0.638000011      -6.96970755E-03
  0.638999999      -6.96969545E-03
  0.639999986      -6.96968567E-03
  0.640999973      -6.96967402E-03
  0.642000020      -6.96965633E-03
  0.643000007      -6.96962979E-03
  0.643999994      -6.96959393E-03
  0.644999981      -6.96954923E-03
  0.646000028      -6.96949800E-03
  0.647000015      -6.96944445E-03
  0.648000002      -6.96939323E-03
  0.648999989      -6.96934853E-03
  0.649999976      -6.96931267E-03
  0.651000023      -6.96928753E-03
  0.652000010      -6.96927356E-03
  0.652999997      -6.96926843E-03
  0.653999984      -6.96926890E-03
  0.654999971      -6.96927030E-03
  0.656000018      -6.96926843E-03
  0.657000005      -6.96925912E-03
  0.657999992      -6.96923910E-03
  0.658999979      -6.96920697E-03
  0.660000026      -6.96916413E-03
  0.661000013      -6.96911244E-03
  0.662000000      -6.96905609E-03
  0.662999988      -6.96899835E-03
  0.663999975      -6.96894480E-03
  0.665000021      -6.96889916E-03
  0.666000009      -6.96886377E-03
  0.666999996      -6.96884096E-03
  0.667999983      -6.96883025E-03
  0.669000030      -6.96883071E-03
  0.670000017      -6.96884003E-03
  0.671000004      -6.96885632E-03
  0.671999991      -6.96887728E-03
  0.672999978      -6.96889963E-03
  0.674000025      -6.96892105E-03
  0.675000012      -6.96893875E-03
  0.675999999      -6.96895039E-03
  0.676999986      -6.96895318E-03
  0.677999973      -6.96894480E-03
  0.679000020      -6.96892338E-03
  0.680000007      -6.96888845E-03
  0.680999994      -6.96884049E-03
  0.681999981      -6.96878089E-03
  0.683000028      -6.96871290E-03
  0.684000015      -6.96864119E-03
  0.685000002      -6.96857041E-03
  0.685999990      -6.96850521E-03
  0.686999977      -6.96844934E-03
  0.688000023      -6.96840463E-03
  0.689000010      -6.96837204E-03
  0.689999998      -6.96835062E-03
  0.690999985      -6.96833851E-03
  0.691999972      -6.96833292E-03
  0.693000019      -6.96833106E-03
  0.694000006      -6.96832966E-03
  0.694999993      -6.96832826E-03
  0.695999980      -6.96832640E-03