 -0.159999996       0.00000000    
 -0.158999994       0.00000000    
 -0.158000007       0.00000000    
 -0.157000005       0.00000000    
 -0.156000003       0.00000000    
 -0.155000001      -1.22993332E-20
 -0.153999999      -8.09476750E-20
 -0.152999997      -2.16241116E-19
 -0.151999995      -8.57468735E-20
 -0.150999993       1.52143402E-18
 -0.150000006       6.92965843E-18
 -0.149000004       1.85210090E-17
 -0.148000002       3.58463483E-17
 -0.147000000       5.23636496E-17
 -0.145999998       5.61138681E-17
 -0.144999996       3.96774783E-17
 -0.143999994       2.04571725E-17
 -0.143000007       6.14189877E-17
 -0.142000005       2.69362856E-16
 -0.141000003       7.43673699E-16
 -0.140000001       1.46634363E-15
 -0.138999999       2.16853966E-15
 -0.137999997       2.26541206E-15
 -0.136999995       9.81904733E-16
 -0.136000007      -2.24898301E-15
 -0.135000005      -7.17470195E-15
 -0.134000003      -1.21691309E-14
 -0.133000001      -1.41863839E-14
 -0.131999999      -9.66635101E-15
 -0.130999997       3.48895814E-15
 -0.129999995       2.33964900E-14
 -0.128999993       4.24180649E-14
 -0.128000006       4.78643783E-14
 -0.127000004       2.65414369E-14
 -0.126000002      -2.69882298E-14
 -0.125000000      -1.00981086E-13
 -0.123999998      -1.60956507E-13
 -0.123000003      -1.54135480E-13
 -0.122000001      -2.82088077E-14
 -0.120999999       2.36646396E-13
 -0.119999997       5.91771424E-13
 -0.119000003       8.97429212E-13
 -0.118000001       9.34626725E-13
 -0.116999999       4.67126446E-13
 -0.115999997      -6.46944358E-13
 -0.115000002      -2.31972926E-12
 -0.114000000      -4.12677661E-12
 -0.112999998      -5.29635277E-12
 -0.112000003      -4.85427193E-12
 -0.111000001      -1.94361454E-12
 -0.109999999       3.72979165E-12
 -0.108999997       1.14551155E-11
 -0.108000003       1.92678842E-11
 -0.107000001       2.40937201E-11
 -0.105999999       2.24122196E-11
 -0.104999997       1.14145065E-11
 -0.104000002      -9.58029402E-12
 -0.103000000      -3.78846780E-11
 -0.101999998      -6.69232794E-11
 -0.101000004      -8.69218586E-11
 -0.100000001      -8.70293976E-11
  -9.89999995E-02  -5.86563714E-11
  -9.79999974E-02   7.04827852E-13
  -9.70000029E-02   8.43385015E-11
  -9.60000008E-02   1.75157888E-10
  -9.49999988E-02   2.47605908E-10
  -9.39999968E-02   2.72953049E-10
  -9.30000022E-02   2.27306257E-10
  -9.20000002E-02   1.00542935E-10
  -9.09999982E-02  -9.64225366E-11
  -9.00000036E-02  -3.28797989E-10
  -8.90000015E-02  -5.41564515E-10
  -8.79999995E-02  -6.70157263E-10
  -8.69999975E-02  -6.56652621E-10
  -8.60000029E-02  -4.67891115E-10
  -8.50000009E-02  -1.10592764E-10
  -8.39999989E-02   3.61611241E-10
  -8.29999968E-02   8.52907134E-10
  -8.20000023E-02   1.24269395E-09
  -8.10000002E-02   1.41301559E-09
  -7.99999982E-02   1.28005873E-09
  -7.90000036E-02   8.21634483E-10
  -7.80000016E-02   9.25100344E-11
  -7.69999996E-02  -7.78254683E-10
  -7.59999976E-02  -1.60954072E-09
  -7.50000030E-02  -2.20634178E-09
  -7.40000010E-02  -2.40550491E-09
  -7.29999989E-02  -2.11784323E-09
  -7.19999969E-02  -1.35548506E-09
  -7.10000023E-02  -2.36486414E-10
  -7.00000003E-02   1.03569686E-09
  -6.89999983E-02   2.21377894E-09
  -6.80000037E-02   3.05951997E-09
  -6.70000017E-02   3.39506312E-09
  -6.59999996E-02   3.14024695E-09
  -6.49999976E-02   2.32718933E-09
  -6.40000030E-02   1.08956688E-09
  -6.30000010E-02  -3.69311609E-10
  -6.19999990E-02  -1.82025861E-09
  -6.10000007E-02  -3.05205572E-09
  -5.99999987E-02  -3.90480581E-09
  -5.90000004E-02  -4.28633795E-09
  -5.79999983E-02  -4.17089652E-09
  -5.70000000E-02  -3.58468877E-09
  -5.60000017E-02  -2.58617772E-09
  -5.49999997E-02  -1.24933774E-09
  -5.40000014E-02   3.44441475E-10
  -5.29999994E-02   2.10443973E-09
  -5.20000011E-02   3.92176469E-09
  -5.09999990E-02   5.65962965E-09
  -5.00000007E-02   7.14928783E-09
  -4.89999987E-02   8.19614066E-09
  -4.80000004E-02   8.59693738E-09
  -4.69999984E-02   8.16526047E-09
  -4.60000001E-02   6.76009870E-09
  -4.50000018E-02   4.31204761E-09
  -4.39999998E-02   8.43445092E-10
  -4.30000015E-02  -3.51848817E-09
  -4.19999994E-02  -8.53414051E-09
  -4.10000011E-02  -1.38476919E-08
  -3.99999991E-02  -1.89866807E-08
  -3.90000008E-02  -2.33678286E-08
  -3.79999988E-02  -2.63151350E-08
  -3.70000005E-02  -2.70973075E-08
  -3.59999985E-02  -2.49892675E-08
  -3.50000001E-02  -1.93562215E-08
  -3.40000018E-02  -9.75022285E-09
  -3.29999998E-02   3.99914768E-09
  -3.20000015E-02   2.17231779E-08
  -3.09999995E-02   4.29032454E-08
  -2.99999993E-02   6.67241338E-08
  -2.89999992E-02   9.21904402E-08
  -2.80000009E-02   1.18288774E-07
  -2.70000007E-02   1.44164659E-07
  -2.60000005E-02   1.69276746E-07
  -2.50000004E-02   1.93494159E-07
  -2.40000002E-02   2.17116423E-07
  -2.30000000E-02   2.40814757E-07
  -2.19999999E-02   2.65514331E-07
  -2.09999997E-02   2.92252651E-07
  -1.99999996E-02   3.22054291E-07
  -1.89999994E-02   3.55855747E-07
  -1.79999992E-02   3.94497988E-07
  -1.70000009E-02   4.38782223E-07
  -1.60000008E-02   4.89564911E-07
  -1.49999997E-02   5.47855905E-07
  -1.40000004E-02   6.14883788E-07
  -1.30000003E-02   6.92103811E-07
  -1.20000001E-02   7.81142830E-07
  -1.09999999E-02   8.83698078E-07
  -9.99999978E-03   1.00142233E-06
  -8.99999961E-03   1.13583394E-06
  -8.00000038E-03   1.28828469E-06
  -7.00000022E-03   1.46000332E-06
  -6.00000005E-03   1.65221036E-06
  -4.99999989E-03   1.86628120E-06
  -4.00000019E-03   2.10392386E-06
  -3.00000003E-03   2.36733217E-06
  -2.00000009E-03   2.65928452E-06
  -1.00000005E-03   2.98317605E-06
   0.00000000       3.34298397E-06
   1.00000005E-03   3.74318597E-06
   2.00000009E-03   4.18865238E-06
   3.00000003E-03   4.68454527E-06
   4.00000019E-03   5.23624522E-06
   4.99999989E-03   5.84931695E-06
   6.00000005E-03   6.52952849E-06
   7.00000022E-03   7.28291661E-06
   8.00000038E-03   8.11589962E-06
   8.99999961E-03   9.03542696E-06
   9.99999978E-03   1.00491397E-05
   1.09999999E-02   1.11655454E-05
   1.20000001E-02   1.23941682E-05
   1.30000003E-02   1.37456555E-05
   1.40000004E-02   1.52318371E-05
   1.49999997E-02   1.68657170E-05
   1.60000008E-02   1.86614070E-05
   1.70000009E-02   2.06340446E-05
   1.79999992E-02   2.27996989E-05
   1.89999994E-02   2.51753281E-05
   1.99999996E-02   2.77788076E-05
   2.09999997E-02   3.06290385E-05
   2.19999999E-02   3.37461097E-05
   2.30000000E-02   3.71515125E-05
   2.40000002E-02   4.08683154E-05
   2.50000004E-02   4.49213039E-05
   2.60000005E-02   4.93370135E-05
   2.70000007E-02   5.41436893E-05
   2.80000009E-02   5.93711993E-05
   2.89999992E-02   6.50509319E-05
   2.99999993E-02   7.12157780E-05
   3.09999995E-02   7.79002148E-05
   3.20000015E-02   8.51404766E-05
   3.29999998E-02   9.29748712E-05
   3.40000018E-02   1.01444108E-04
   3.50000001E-02   1.10591609E-04
   3.59999985E-02   1.20463752E-04
   3.70000005E-02   1.31109991E-04
   3.79999988E-02   1.42582838E-04
   3.90000008E-02   1.54937748E-04
   3.99999991E-02   1.68233033E-04
   4.10000011E-02   1.82529664E-04
   4.19999994E-02   1.97891204E-04
   4.30000015E-02   2.14383777E-04
   4.39999998E-02   2.32076083E-04
   4.50000018E-02   2.51039339E-04
   4.60000001E-02   2.71347293E-04
   4.69999984E-02   2.93076213E-04
   4.80000004E-02   3.16304737E-04
   4.89999987E-02   3.41113715E-04
   5.00000007E-02   3.67586326E-04
   5.09999990E-02   3.95808020E-04
   5.20000011E-02   4.25866630E-04
   5.29999994E-02   4.57852555E-04
   5.40000014E-02   4.91858984E-04
   5.49999997E-02   5.27981843E-04
   5.60000017E-02   5.66319912E-04
   5.70000000E-02   6.06974645E-04
   5.79999983E-02   6.50050060E-04
   5.90000004E-02   6.95652154E-04
   5.99999987E-02   7.43888842E-04
   6.10000007E-02   7.94869789E-04
   6.19999990E-02   8.48706462E-04
   6.30000010E-02   9.05511552E-04
   6.40000030E-02   9.65399377E-04
   6.49999976E-02   1.02848536E-03
   6.59999996E-02   1.09488552E-03
   6.70000017E-02   1.16471597E-03
   6.80000037E-02   1.23809197E-03
   6.89999983E-02   1.31512771E-03
   7.00000003E-02   1.39593508E-03
   7.10000023E-02   1.48062431E-03
   7.19999969E-02   1.56930368E-03
   7.29999989E-02   1.66208018E-03
   7.40000010E-02   1.75905961E-03
   7.50000030E-02   1.86034734E-03
   7.59999976E-02   1.96604826E-03
   7.69999996E-02   2.07626610E-03
   7.80000016E-02   2.19110237E-03
   7.90000036E-02   2.31065461E-03
   7.99999982E-02   2.43501645E-03
   8.10000002E-02   2.56427517E-03
   8.20000023E-02   2.69851135E-03
   8.29999968E-02   2.83779949E-03
   8.39999989E-02   2.98220851E-03
   8.50000009E-02   3.13180150E-03
   8.60000029E-02   3.28663713E-03
   8.69999975E-02   3.44677013E-03
   8.79999995E-02   3.61225032E-03
   8.90000015E-02   3.78312147E-03
   9.00000036E-02   3.95942153E-03
   9.09999982E-02   4.14117798E-03
   9.20000002E-02   4.32841154E-03
   9.30000022E-02   4.52113198E-03
   9.39999968E-02   4.71934071E-03
   9.49999988E-02   4.92303120E-03
   9.60000008E-02   5.13218902E-03
   9.70000029E-02   5.34679415E-03
   9.79999974E-02   5.56682050E-03
   9.89999995E-02   5.79223596E-03
  0.100000001       6.02300186E-03
  0.101000004       6.25907024E-03
  0.101999998       6.50038477E-03
  0.103000000       6.74687792E-03
  0.104000002       6.99847285E-03
  0.104999997       7.25508155E-03
  0.105999999       7.51660857E-03
  0.107000001       7.78295193E-03
  0.108000003       8.05400405E-03
  0.108999997       8.32965132E-03
  0.109999999       8.60977639E-03
  0.111000001       8.89425911E-03
  0.112000003       9.18297190E-03
  0.112999998       9.47578158E-03
  0.114000000       9.77254752E-03
  0.115000002       1.00731226E-02
  0.115999997       1.03773521E-02
  0.116999999       1.06850760E-02
  0.118000001       1.09961294E-02
  0.119000003       1.13103464E-02
  0.119999997       1.16275568E-02
  0.120999999       1.19475918E-02
  0.122000001       1.22702774E-02
  0.123000003       1.25954384E-02
  0.123999998       1.29228970E-02
  0.125000000       1.32524734E-02
  0.126000002       1.35839842E-02
  0.127000004       1.39172459E-02
  0.128000006       1.42520722E-02
  0.128999993       1.45882796E-02
  0.129999995       1.49256848E-02
  0.130999997       1.52641051E-02
  0.131999999       1.56033598E-02
  0.133000001       1.59432683E-02
  0.134000003       1.62836500E-02
  0.135000005       1.66243277E-02
  0.136000007       1.69651229E-02
  0.136999995       1.73058510E-02
  0.137999997       1.76463313E-02
  0.138999999       1.79863833E-02
  0.140000001       1.83258243E-02
  0.141000003       1.86644755E-02
  0.142000005       1.90021619E-02
  0.143000007       1.93387121E-02
  0.143999994       1.96739528E-02
  0.144999996       2.00077146E-02
  0.145999998       2.03398317E-02
  0.147000000       2.06701346E-02
  0.148000002       2.09984481E-02
  0.149000004       2.13246010E-02
  0.150000006       2.16484144E-02
  0.150999993       2.19697133E-02
  0.151999995       2.22883224E-02
  0.152999997       2.26040669E-02
  0.153999999       2.29167752E-02
  0.155000001       2.32262779E-02
  0.156000003       2.35324036E-02
  0.157000005       2.38349792E-02
  0.158000007       2.41338350E-02
  0.158999994       2.44287886E-02
  0.159999996       2.47196555E-02
  0.160999998       2.50062514E-02
  0.162000000       2.52883844E-02
  0.163000003       2.55658664E-02
  0.164000005       2.58385055E-02
  0.165000007       2.61061117E-02
  0.165999994       2.63685007E-02
  0.166999996       2.66254861E-02
  0.167999998       2.68768799E-02
  0.169000000       2.71224957E-02
  0.170000002       2.73621418E-02
  0.171000004       2.75956225E-02
  0.172000006       2.78227348E-02
  0.172999993       2.80432738E-02
  0.173999995       2.82570366E-02
  0.174999997       2.84638237E-02
  0.175999999       2.86634360E-02
  0.177000001       2.88556851E-02
  0.178000003       2.90403869E-02
  0.179000005       2.92173624E-02
  0.180000007       2.93864347E-02
  0.180999994       2.95474306E-02
  0.181999996       2.97001749E-02
  0.182999998       2.98444964E-02
  0.184000000       2.99802218E-02
  0.185000002       3.01071815E-02
  0.186000004       3.02252099E-02
  0.187000006       3.03341523E-02
  0.187999994       3.04338690E-02
  0.188999996       3.05242278E-02
  0.189999998       3.06051131E-02
  0.191000000       3.06764171E-02
  0.192000002       3.07380464E-02
  0.193000004       3.07899117E-02
  0.194000006       3.08319367E-02
  0.194999993       3.08640487E-02
  0.195999995       3.08861788E-02
  0.196999997       3.08982767E-02
  0.197999999       3.09003014E-02
  0.199000001       3.08922306E-02
  0.200000003       3.08740549E-02
  0.201000005       3.08457874E-02
  0.202000007       3.08074579E-02
  0.202999994       3.07591110E-02
  0.203999996       3.07008084E-02
  0.204999998       3.06326188E-02
  0.206000000       3.05546243E-02
  0.207000002       3.04669179E-02
  0.208000004       3.03696077E-02
  0.209000006       3.02628148E-02
  0.209999993       3.01466789E-02
  0.210999995       3.00213564E-02
  0.211999997       2.98870243E-02
  0.213000000       2.97438763E-02
  0.214000002       2.95921192E-02
  0.215000004       2.94319764E-02
  0.216000006       2.92636789E-02
  0.216999993       2.90874690E-02
  0.217999995       2.89035942E-02
  0.218999997       2.87123192E-02
  0.219999999       2.85139196E-02
  0.221000001       2.83086784E-02
  0.222000003       2.80968957E-02
  0.223000005       2.78788842E-02
  0.224000007       2.76549701E-02
  0.224999994       2.74254866E-02
  0.225999996       2.71907784E-02
  0.226999998       2.69511938E-02
  0.228000000       2.67070830E-02
  0.229000002       2.64587943E-02
  0.230000004       2.62066852E-02
  0.231000006       2.59511136E-02
  0.231999993       2.56924406E-02
  0.232999995       2.54310332E-02
  0.233999997       2.51672603E-02
  0.234999999       2.49014981E-02
  0.236000001       2.46341210E-02
  0.237000003       2.43655033E-02
  0.238000005       2.40960177E-02
  0.238999993       2.38260310E-02
  0.239999995       2.35559028E-02
  0.240999997       2.32859831E-02
  0.241999999       2.30166148E-02
  0.243000001       2.27481388E-02
  0.244000003       2.24808883E-02
  0.245000005       2.22151894E-02
  0.246000007       2.19513662E-02
  0.246999994       2.16897372E-02
  0.247999996       2.14306153E-02
  0.248999998       2.11743023E-02
  0.250000000       2.09210888E-02
  0.250999987       2.06712484E-02
  0.252000004       2.04250421E-02
  0.252999991       2.01827139E-02
  0.254000008       1.99445002E-02
  0.254999995       1.97106171E-02
  0.256000012       1.94812715E-02
  0.256999999       1.92566644E-02
  0.257999986       1.90369822E-02
  0.259000003       1.88224055E-02
  0.259999990       1.86130963E-02
  0.261000007       1.84092093E-02
  0.261999995       1.82108786E-02
  0.263000011       1.80182215E-02
  0.263999999       1.78313442E-02
  0.264999986       1.76503286E-02
  0.266000003       1.74752492E-02
  0.266999990       1.73061639E-02
  0.268000007       1.71431210E-02
  0.268999994       1.69861540E-02
  0.270000011       1.68352909E-02
  0.270999998       1.66905466E-02
  0.272000015       1.65519211E-02
  0.273000002       1.64194014E-02
  0.273999989       1.62929669E-02
  0.275000006       1.61725767E-02
  0.275999993       1.60581842E-02
  0.277000010       1.59497280E-02
  0.277999997       1.58471391E-02
  0.279000014       1.57503355E-02
  0.280000001       1.56592317E-02
  0.280999988       1.55737326E-02
  0.282000005       1.54937338E-02
  0.282999992       1.54191256E-02
  0.284000009       1.53497914E-02
  0.284999996       1.52856084E-02
  0.286000013       1.52264461E-02
  0.287000000       1.51721695E-02
  0.287999988       1.51226372E-02
  0.289000005       1.50777018E-02
  0.289999992       1.50372135E-02
  0.291000009       1.50010148E-02
  0.291999996       1.49689484E-02
  0.293000013       1.49408523E-02
  0.294000000       1.49165653E-02
  0.294999987       1.48959253E-02
  0.296000004       1.48787722E-02
  0.296999991       1.48649467E-02
  0.298000008       1.48542896E-02
  0.298999995       1.48466397E-02
  0.300000012       1.48418359E-02
  0.300999999       1.48397181E-02
  0.301999986       1.48401242E-02
  0.303000003       1.48428939E-02
  0.303999990       1.48478691E-02
  0.305000007       1.48548950E-02
  0.305999994       1.48638226E-02
  0.307000011       1.48745086E-02
  0.307999998       1.48868151E-02
  0.308999985       1.49006080E-02
  0.310000002       1.49157541E-02
  0.310999990       1.49321249E-02
  0.312000006       1.49495918E-02
  0.312999994       1.49680292E-02
  0.314000010       1.49873141E-02
  0.314999998       1.50073301E-02
  0.316000015       1.50279654E-02
  0.317000002       1.50491167E-02
  0.317999989       1.50706870E-02
  0.319000006       1.50925852E-02
  0.319999993       1.51147274E-02
  0.321000010       1.51370298E-02
  0.321999997       1.51594141E-02
  0.323000014       1.51818013E-02
  0.324000001       1.52041158E-02
  0.324999988       1.52262868E-02
  0.326000005       1.52482474E-02
  0.326999992       1.52699379E-02
  0.328000009       1.52913062E-02
  0.328999996       1.53123057E-02
  0.330000013       1.53328981E-02
  0.331000000       1.53530473E-02
  0.331999987       1.53727187E-02
  0.333000004       1.53918816E-02
  0.333999991       1.54105034E-02
  0.335000008       1.54285571E-02
  0.335999995       1.54460156E-02
  0.337000012       1.54628577E-02
  0.338000000       1.54790655E-02
  0.338999987       1.54946251E-02
  0.340000004       1.55095281E-02
  0.340999991       1.55237680E-02
  0.342000008       1.55373402E-02
  0.342999995       1.55502399E-02
  0.344000012       1.55624645E-02
  0.344999999       1.55740110E-02
  0.345999986       1.55848786E-02
  0.347000003       1.55950701E-02
  0.347999990       1.56045891E-02
  0.349000007       1.56134460E-02
  0.349999994       1.56216528E-02
  0.351000011       1.56292226E-02
  0.351999998       1.56361684E-02
  0.352999985       1.56425070E-02
  0.354000002       1.56482477E-02
  0.354999989       1.56534035E-02
  0.356000006       1.56579856E-02
  0.356999993       1.56620052E-02
  0.358000010       1.56654771E-02
  0.358999997       1.56684145E-02
  0.360000014       1.56708322E-02
  0.361000001       1.56727508E-02
  0.361999989       1.56741887E-02
  0.363000005       1.56751610E-02
  0.363999993       1.56756863E-02
  0.365000010       1.56757794E-02
  0.365999997       1.56754553E-02
  0.367000014       1.56747289E-02
  0.368000001       1.56736169E-02
  0.368999988       1.56721361E-02
  0.370000005       1.56703051E-02
  0.370999992       1.56681389E-02
  0.372000009       1.56656578E-02
  0.372999996       1.56628788E-02
  0.374000013       1.56598147E-02
  0.375000000       1.56564787E-02
  0.375999987       1.56528819E-02
  0.377000004       1.56490374E-02
  0.377999991       1.56449582E-02
  0.379000008       1.56406555E-02
  0.379999995       1.56361461E-02
  0.381000012       1.56314448E-02
  0.381999999       1.56265683E-02
  0.382999986       1.56215318E-02
  0.384000003       1.56163508E-02
  0.384999990       1.56110376E-02
  0.386000007       1.56056015E-02
  0.386999995       1.56000480E-02
  0.388000011       1.55943828E-02
  0.388999999       1.55886123E-02
  0.389999986       1.55827412E-02
  0.391000003       1.55767770E-02
  0.391999990       1.55707309E-02
  0.393000007       1.55646140E-02
  0.393999994       1.55584384E-02
  0.395000011       1.55522162E-02
  0.395999998       1.55459605E-02
  0.397000015       1.55396806E-02
  0.398000002       1.55333821E-02
  0.398999989       1.55270705E-02
  0.400000006       1.55207468E-02
  0.400999993       1.55144120E-02
  0.402000010       1.55080659E-02
  0.402999997       1.55017124E-02
  0.404000014       1.54953552E-02
  0.405000001       1.54890027E-02
  0.405999988       1.54826622E-02
  0.407000005       1.54763442E-02
  0.407999992       1.54700587E-02
  0.409000009       1.54638123E-02
  0.409999996       1.54576078E-02
  0.411000013       1.54514452E-02
  0.412000000       1.54453237E-02
  0.412999988       1.54392365E-02
  0.414000005       1.54331811E-02
  0.414999992       1.54271545E-02
  0.416000009       1.54211577E-02
  0.416999996       1.54151944E-02
  0.418000013       1.54092722E-02
  0.419000000       1.54034030E-02
  0.419999987       1.53975952E-02
  0.421000004       1.53918583E-02
  0.421999991       1.53861949E-02
  0.423000008       1.53806042E-02
  0.423999995       1.53750824E-02
  0.425000012       1.53696239E-02
  0.425999999       1.53642213E-02
  0.426999986       1.53588690E-02
  0.428000003       1.53535651E-02
  0.428999990       1.53483115E-02
  0.430000007       1.53431138E-02
  0.430999994       1.53379794E-02
  0.432000011       1.53329140E-02
  0.432999998       1.53279230E-02
  0.433999985       1.53230065E-02
  0.435000002       1.53181609E-02
  0.435999990       1.53133804E-02
  0.437000006       1.53086577E-02
  0.437999994       1.53039871E-02
  0.439000010       1.52993649E-02
  0.439999998       1.52947912E-02
  0.441000015       1.52902696E-02
  0.442000002       1.52858086E-02
  0.442999989       1.52814137E-02
  0.444000006       1.52770896E-02
  0.444999993       1.52728381E-02
  0.446000010       1.52686574E-02
  0.446999997       1.52645400E-02
  0.448000014       1.52604803E-02
  0.449000001       1.52564701E-02
  0.449999988       1.52525064E-02
  0.451000005       1.52485864E-02
  0.451999992       1.52447140E-02
  0.453000009       1.52408937E-02
  0.453999996       1.52371312E-02
  0.455000013       1.52334291E-02
  0.456000000       1.52297877E-02
  0.456999987       1.52262039E-02
  0.458000004       1.52226705E-02
  0.458999991       1.52191818E-02
  0.460000008       1.52157322E-02
  0.460999995       1.52123179E-02
  0.462000012       1.52089419E-02
  0.463000000       1.52056087E-02
  0.463999987       1.52023248E-02
  0.465000004       1.51990969E-02
  0.465999991       1.51959267E-02
  0.467000008       1.51928142E-02
  0.467999995       1.51897529E-02
  0.469000012       1.51867345E-02
  0.469999999       1.51837487E-02
  0.470999986       1.51807871E-02
  0.472000003       1.51778469E-02
  0.472999990       1.51749291E-02
  0.474000007       1.51720401E-02
  0.474999994       1.51691884E-02
  0.476000011       1.51663823E-02
  0.476999998       1.51636284E-02
  0.477999985       1.51609266E-02
  0.479000002       1.51582742E-02
  0.479999989       1.51556637E-02
  0.481000006       1.51530849E-02
  0.481999993       1.51505303E-02
  0.483000010       1.51479943E-02
  0.483999997       1.51454769E-02
  0.485000014       1.51429819E-02
  0.486000001       1.51405167E-02
  0.486999989       1.51380887E-02
  0.488000005       1.51357045E-02
  0.488999993       1.51333651E-02
  0.490000010       1.51310675E-02
  0.490999997       1.51288044E-02
  0.492000014       1.51265655E-02
  0.493000001       1.51243415E-02
  0.493999988       1.51221287E-02
  0.495000005       1.51199251E-02
  0.495999992       1.51177356E-02
  0.497000009       1.51155666E-02
  0.497999996       1.51134254E-02
  0.499000013       1.51113169E-02
  0.500000000       1.51092419E-02
  0.500999987       1.51071995E-02
  0.501999974       1.51051823E-02
  0.503000021       1.51031837E-02
  0.504000008       1.51011962E-02
  0.504999995       1.50992163E-02
  0.505999982       1.50972456E-02
  0.507000029       1.50952898E-02
  0.508000016       1.50933564E-02
  0.509000003       1.50914518E-02
  0.509999990       1.50895827E-02
  0.510999978       1.50877489E-02
  0.512000024       1.50859477E-02
  0.513000011       1.50841726E-02
  0.513999999       1.50824133E-02
  0.514999986       1.50806615E-02
  0.515999973       1.50789116E-02
  0.517000020       1.50771644E-02
  0.518000007       1.50754228E-02
  0.518999994       1.50736943E-02
  0.519999981       1.50719872E-02
  0.521000028       1.50703071E-02
  0.522000015       1.50686568E-02
  0.523000002       1.50670363E-02
  0.523999989       1.50654409E-02
  0.524999976       1.50638642E-02
  0.526000023       1.50623014E-02
  0.527000010       1.50607489E-02
  0.527999997       1.50592057E-02
  0.528999984       1.50576727E-02
  0.529999971       1.50561538E-02
  0.531000018       1.50546553E-02
  0.532000005       1.50531800E-02
  0.532999992       1.50517309E-02
  0.533999979       1.50503088E-02
  0.535000026       1.50489090E-02
  0.536000013       1.50475269E-02
  0.537000000       1.50461560E-02
  0.537999988       1.50447926E-02
  0.538999975       1.50434347E-02
  0.540000021       1.50420815E-02
  0.541000009       1.50407357E-02
  0.541999996       1.50394030E-02
  0.542999983       1.50380898E-02
  0.544000030       1.50368009E-02
  0.545000017       1.50355380E-02
  0.546000004       1.50343012E-02
  0.546999991       1.50330849E-02
  0.547999978       1.50318826E-02
  0.549000025       1.50306877E-02
  0.550000012       1.50294947E-02
  0.550999999       1.50283026E-02
  0.551999986       1.50271105E-02
  0.552999973       1.50259230E-02
  0.554000020       1.50247468E-02
  0.555000007       1.50235873E-02
  0.555999994       1.50224501E-02
  0.556999981       1.50213391E-02
  0.558000028       1.50202513E-02
  0.559000015       1.50191840E-02
  0.560000002       1.50181297E-02
  0.560999990       1.50170801E-02
  0.561999977       1.50160287E-02
  0.563000023       1.50149735E-02
  0.564000010       1.50139136E-02
  0.564999998       1.50128538E-02
  0.565999985       1.50118014E-02
  0.566999972       1.50107639E-02
  0.568000019       1.50097460E-02
  0.569000006       1.50087504E-02
  0.569999993       1.50077771E-02
  0.570999980       1.50068216E-02
  0.572000027       1.50058763E-02
  0.573000014       1.50049347E-02
  0.574000001       1.50039895E-02
  0.574999988       1.50030386E-02
  0.575999975       1.50020849E-02
  0.577000022       1.50011340E-02
  0.578000009       1.50001943E-02
  0.578999996       1.49992732E-02
  0.579999983       1.49983754E-02
  0.580999970       1.49975037E-02
  0.582000017       1.49966562E-02
  0.583000004       1.49958264E-02
  0.583999991       1.49950068E-02
  0.584999979       1.49941891E-02
  0.586000025       1.49933677E-02
  0.587000012       1.49925407E-02
  0.588000000       1.49917081E-02
  0.588999987       1.49908764E-02
  0.589999974       1.49900513E-02
  0.591000021       1.49892410E-02
  0.592000008       1.49884503E-02
  0.592999995       1.49876820E-02
  0.593999982       1.49869341E-02
  0.595000029       1.49862040E-02
  0.596000016       1.49854850E-02
  0.597000003       1.49847716E-02
  0.597999990       1.49840582E-02
  0.598999977       1.49833439E-02
  0.600000024       1.49826296E-02
  0.601000011       1.49819199E-02
  0.601999998       1.49812205E-02
  0.602999985       1.49805360E-02
  0.603999972       1.49798701E-02
  0.605000019       1.49792228E-02
  0.606000006       1.49785904E-02
  0.606999993       1.49779683E-02
  0.607999980       1.49773508E-02
  0.609000027       1.49767315E-02
  0.610000014       1.49761066E-02
  0.611000001       1.49754761E-02
  0.611999989       1.49748437E-02
  0.612999976       1.49742169E-02
  0.614000022       1.49736004E-02
  0.615000010       1.49729988E-02
  0.615999997       1.49724148E-02
  0.616999984       1.49718467E-02
  0.617999971       1.49712889E-02
  0.619000018       1.49707338E-02
  0.620000005       1.49701750E-02
  0.620999992       1.49696097E-02
  0.621999979       1.49690369E-02
  0.623000026       1.49684614E-02
  0.624000013       1.49678895E-02
  0.625000000       1.49673307E-02
  0.625999987       1.49667906E-02
  0.626999974       1.49662709E-02
  0.628000021       1.49657698E-02
  0.629000008       1.49652800E-02
  0.629999995       1.49647947E-02
  0.630999982       1.49643030E-02
  0.632000029       1.49637982E-02
  0.633000016       1.49632785E-02
  0.634000003       1.49627468E-02
  0.634999990       1.49622113E-02
  0.635999978       1.49616804E-02
  0.637000024       1.49611644E-02
  0.638000011       1.49606690E-02
  0.638999999       1.49601949E-02
  0.639999986       1.49597377E-02
  0.640999973       1.49592888E-02
  0.642000020       1.49588380E-02
  0.643000007       1.49583761E-02
  0.643999994       1.49578992E-02
  0.644999981       1.49574075E-02
  0.646000028       1.49569064E-02
  0.647000015       1.49564054E-02
  0.648000002       1.49559136E-02
  0.648999989       1.49554415E-02
  0.649999976       1.49549907E-02
  0.651000023       1.49545586E-02
  0.652000010       1.49541395E-02
  0.652999997       1.49537241E-02
  0.653999984       1.49533013E-02
  0.654999971       1.49528645E-02
  0.656000018       1.49524109E-02
  0.657000005       1.49519416E-02
  0.657999992       1.49514647E-02
  0.658999979       1.49509870E-02
  0.660000026       1.49505185E-02
  0.661000013       1.49500659E-02
  0.662000000       1.49496300E-02
  0.662999988       1.49492100E-02
  0.663999975       1.49488002E-02
  0.665000021       1.49483932E-02
  0.666000009       1.49479816E-02
  0.666999996       1.49475606E-02
  0.667999983       1.49471303E-02
  0.669000030       1.49466926E-02
  0.670000017       1.49462549E-02
  0.671000004       1.49458228E-02
  0.671999991       1.49454027E-02
  0.672999978       1.49449976E-02
  0.674000025       1.49446065E-02
  0.675000012       1.49442246E-02
  0.675999999       1.49438474E-02
  0.676999986       1.49434675E-02
  0.677999973       1.49430819E-02
  0.679000020       1.49426889E-02
  0.680000007       1.49422903E-02
  0.680999994       1.49418917E-02
  0.681999981       1.49414977E-02
  0.683000028       1.49411168E-02
  0.684000015       1.49407526E-02
  0.685000002       1.49404071E-02
  0.685999990       1.49400774E-02
  0.686999977       1.49397589E-02
  0.688000023       1.49394451E-02
  0.689000010       1.49391312E-02
  0.689999998       1.49388136E-02
  0.690999985       1.49384923E-02
  0.691999972       1.49381682E-02
  0.693000019       1.49378460E-02
  0.694000006       1.49375284E-02
  0.694999993       1.49372183E-02
  0.695999980       1.49369193E-02