 -0.159999996       0.00000000    
 -0.158999994       0.00000000    
 -0.158000007       0.00000000    
 -0.157000005       0.00000000    
 -0.156000003       0.00000000    
 -0.155000001       0.00000000    
 -0.153999999       0.00000000    
 -0.152999997       0.00000000    
 -0.151999995       0.00000000    
 -0.150999993      -2.60273122E-29
 -0.150000006      -3.89566805E-28
 -0.149000004      -2.85176491E-27
 -0.148000002      -1.30542798E-26
 -0.147000000      -3.78756588E-26
 -0.145999998      -4.41098478E-26
 -0.144999996       2.20500921E-25
 -0.143999994       1.73301145E-24
 -0.143000007       7.20888863E-24
 -0.142000005       2.23726885E-23
 -0.141000003       5.58759772E-23
 -0.140000001       1.13670805E-22
 -0.138999999       1.80711713E-22
 -0.137999997       1.82966303E-22
 -0.136999995      -6.74626652E-23
 -0.136000007      -9.13726606E-22
 -0.135000005      -2.80396800E-21
 -0.134000003      -6.01889814E-21
 -0.133000001      -1.00372034E-20
 -0.131999999      -1.25138896E-20
 -0.130999997      -8.17586287E-21
 -0.129999995       1.14920574E-20
 -0.128999993       5.62394670E-20
 -0.128000006       1.30876891E-19
 -0.127000004       2.23852315E-19
 -0.126000002       2.92131784E-19
 -0.125000000       2.48812594E-19
 -0.123999998      -3.38802645E-20
 -0.123000003      -6.88879995E-19
 -0.122000001      -1.77041963E-18
 -0.120999999      -3.12113278E-18
 -0.119999997      -4.22035655E-18
 -0.119000003      -4.08892665E-18
 -0.118000001      -1.37045051E-18
 -0.116999999       5.27444314E-18
 -0.115999997       1.63732130E-17
 -0.115000002       3.05049916E-17
 -0.114000000       4.31317217E-17
 -0.112999998       4.60101613E-17
 -0.112000003       2.80359832E-17
 -0.111000001      -2.16425637E-17
 -0.109999999      -1.07870387E-16
 -0.108999997      -2.21762239E-16
 -0.108000003      -3.33222576E-16
 -0.107000001      -3.87570116E-16
 -0.105999999      -3.11154244E-16
 -0.104999997      -3.02923103E-17
 -0.104000002       4.95158785E-16
 -0.103000000       1.22807771E-15
 -0.101999998       2.01249247E-15
 -0.101000004       2.55405845E-15
 -0.100000001       2.44643973E-15
  -9.89999995E-02   1.26348834E-15
  -9.79999974E-02  -1.27795037E-15
  -9.70000029E-02  -5.10640927E-15
  -9.60000008E-02  -9.59108281E-15
  -9.49999988E-02  -1.34311956E-14
  -9.39999968E-02  -1.47411194E-14
  -9.30000022E-02  -1.14149167E-14
  -9.20000002E-02  -1.79256185E-15
  -9.09999982E-02   1.44542700E-14
  -9.00000036E-02   3.54283931E-14
  -8.90000015E-02   5.64345493E-14
  -8.79999995E-02   7.01123797E-14
  -8.69999975E-02   6.75991178E-14
  -8.60000029E-02   4.08364714E-14
  -8.50000009E-02  -1.42181036E-14
  -8.39999989E-02  -9.41541834E-14
  -8.29999968E-02  -1.85527293E-13
  -8.20000023E-02  -2.64425526E-13
  -8.10000002E-02  -2.99330087E-13
  -7.99999982E-02  -2.57812191E-13
  -7.90000036E-02  -1.16558903E-13
  -7.80000016E-02   1.27102186E-13
  -7.69999996E-02   4.45271966E-13
  -7.59999976E-02   7.74988634E-13
  -7.50000030E-02   1.02282061E-12
  -7.40000010E-02   1.08073012E-12
  -7.29999989E-02   8.52687007E-13
  -7.19999969E-02   2.87964341E-13
  -7.10000023E-02  -5.86507568E-13
  -7.00000003E-02  -1.64479910E-12
  -6.89999983E-02  -2.66191691E-12
  -6.80000037E-02  -3.34241901E-12
  -6.70000017E-02  -3.37907176E-12
  -6.59999996E-02  -2.53452359E-12
  -6.49999976E-02  -7.30046828E-13
  -6.40000030E-02   1.88157953E-12
  -6.30000010E-02   4.88433859E-12
  -6.19999990E-02   7.62946043E-12
  -6.10000007E-02   9.33773111E-12
  -5.99999987E-02   9.26592483E-12
  -5.90000004E-02   6.90990754E-12
  -5.79999983E-02   2.19972218E-12
  -5.70000000E-02  -4.36719497E-12
  -5.60000017E-02  -1.17051846E-11
  -5.49999997E-02  -1.82645409E-11
  -5.40000014E-02  -2.23025209E-11
  -5.29999994E-02  -2.22648931E-11
  -5.20000011E-02  -1.72051366E-11
  -5.09999990E-02  -7.14344209E-12
  -5.00000007E-02   6.73654839E-12
  -4.89999987E-02   2.21337879E-11
  -4.80000004E-02   3.59528171E-11
  -4.69999984E-02   4.48744202E-11
  -4.60000001E-02   4.60778984E-11
  -4.50000018E-02   3.79656029E-11
  -4.39999998E-02   2.07164546E-11
  -4.30000015E-02  -3.48873534E-12
  -4.19999994E-02  -3.06696578E-11
  -4.10000011E-02  -5.56856852E-11
  -3.99999991E-02  -7.32167313E-11
  -3.90000008E-02  -7.88969168E-11
  -3.79999988E-02  -7.03545069E-11
  -3.70000005E-02  -4.79076015E-11
  -3.59999985E-02  -1.47227629E-11
  -3.50000001E-02   2.36461614E-11
  -3.40000018E-02   6.02810649E-11
  -3.29999998E-02   8.82880088E-11
  -3.20000015E-02   1.02252970E-10
  -3.09999995E-02   9.94307484E-11
  -2.99999993E-02   8.03762404E-11
  -2.89999992E-02   4.88455665E-11
  -2.80000009E-02   1.09629632E-11
  -2.70000007E-02  -2.61707982E-11
  -2.60000005E-02  -5.61062724E-11
  -2.50000004E-02  -7.45133399E-11
  -2.40000002E-02  -8.01154976E-11
  -2.30000000E-02  -7.48353116E-11
  -2.19999999E-02  -6.30872993E-11
  -2.09999997E-02  -5.03737607E-11
  -1.99999996E-02  -4.15326523E-11
  -1.89999994E-02  -3.91019994E-11
  -1.79999992E-02  -4.22684422E-11
  -1.70000009E-02  -4.67486050E-11
  -1.60000008E-02  -4.57325879E-11
  -1.49999997E-02  -3.17470807E-11
  -1.40000004E-02   9.63735276E-13
  -1.30000003E-02   5.41219118E-11
  -1.20000001E-02   1.23795987E-10
  -1.09999999E-02   2.00005054E-10
  -9.99999978E-03   2.67827316E-10
  -8.99999961E-03   3.09953702E-10
  -8.00000038E-03   3.10267867E-10
  -7.00000022E-03   2.57740690E-10
  -6.00000005E-03   1.49774873E-10
  -4.99999989E-03  -5.82698776E-12
  -4.00000019E-03  -1.90865879E-10
  -3.00000003E-03  -3.78927334E-10
  -2.00000009E-03  -5.39479683E-10
  -1.00000005E-03  -6.43186893E-10
   0.00000000      -6.67418898E-10
   1.00000005E-03  -6.00835104E-10
   2.00000009E-03  -4.46053777E-10
   3.00000003E-03  -2.19782942E-10
   4.00000019E-03   4.96916293E-11
   4.99999989E-03   3.27204486E-10
   6.00000005E-03   5.76657555E-10
   7.00000022E-03   7.66997410E-10
   8.00000038E-03   8.76991202E-10
   8.99999961E-03   8.97839247E-10
   9.99999978E-03   8.33157654E-10
   1.09999999E-02   6.96479430E-10
   1.20000001E-02   5.07005771E-10
   1.30000003E-02   2.84756024E-10
   1.40000004E-02   4.64038842E-11
   1.49999997E-02  -1.97097824E-10
   1.60000008E-02  -4.40470826E-10
   1.70000009E-02  -6.81666334E-10
   1.79999992E-02  -9.17724063E-10
   1.89999994E-02  -1.14017717E-09
   1.99999996E-02  -1.33149336E-09
   2.09999997E-02  -1.46392620E-09
   2.19999999E-02  -1.50166346E-09
   2.30000000E-02  -1.40640555E-09
   2.40000002E-02  -1.14563603E-09
   2.50000004E-02  -7.02068625E-10
   2.60000005E-02  -8.22517610E-11
   2.70000007E-02   6.77779832E-10
   2.80000009E-02   1.51154289E-09
   2.89999992E-02   2.32678476E-09
   2.99999993E-02   3.01570346E-09
   3.09999995E-02   3.46948914E-09
   3.20000015E-02   3.59502761E-09
   3.29999998E-02   3.33101435E-09
   3.40000018E-02   2.66065103E-09
   3.50000001E-02   1.61854119E-09
   3.59999985E-02   2.90302227E-10
   3.70000005E-02  -1.19539767E-09
   3.79999988E-02  -2.68140354E-09
   3.90000008E-02  -4.00117139E-09
   3.99999991E-02  -4.99959762E-09
   4.10000011E-02  -5.55253754E-09
   4.19999994E-02  -5.58224889E-09
   4.30000015E-02  -5.06672215E-09
   4.39999998E-02  -4.04187395E-09
   4.50000018E-02  -2.59670285E-09
   4.60000001E-02  -8.62511562E-10
   4.69999984E-02   1.00198283E-09
   4.80000004E-02   2.82746404E-09
   4.89999987E-02   4.45062076E-09
   5.00000007E-02   5.72876191E-09
   5.09999990E-02   6.55124133E-09
   5.20000011E-02   6.84710644E-09
   5.29999994E-02   6.58895072E-09
   5.40000014E-02   5.79331871E-09
   5.49999997E-02   4.51820936E-09
   5.60000017E-02   2.85822699E-09
   5.70000000E-02   9.37839140E-10
   5.79999983E-02  -1.09692144E-09
   5.90000004E-02  -3.08804227E-09
   5.99999987E-02  -4.87612262E-09
   6.10000007E-02  -6.31159436E-09
   6.19999990E-02  -7.26605220E-09
   6.30000010E-02  -7.64303998E-09
   6.40000030E-02  -7.38755324E-09
   6.49999976E-02  -6.49352883E-09
   6.59999996E-02  -5.00864950E-09
   6.70000017E-02  -3.03592529E-09
   6.80000037E-02  -7.31630978E-10
   6.89999983E-02   1.70069325E-09
   7.00000003E-02   4.02035560E-09
   7.10000023E-02   5.96374816E-09
   7.19999969E-02   7.26244931E-09
   7.29999989E-02   7.66450103E-09
   7.40000010E-02   6.95758740E-09
   7.50000030E-02   4.99214980E-09
   7.59999976E-02   1.70182235E-09
   7.69999996E-02  -2.88185897E-09
   7.80000016E-02  -8.62348859E-09
   7.90000036E-02  -1.52889914E-08
   7.99999982E-02  -2.25631993E-08
   8.10000002E-02  -3.00792458E-08
   8.20000023E-02  -3.74572764E-08
   8.29999968E-02  -4.43481163E-08
   8.39999989E-02  -5.04761992E-08
   8.50000009E-02  -5.56757485E-08
   8.60000029E-02  -5.99148393E-08
   8.69999975E-02  -6.33037232E-08
   8.79999995E-02  -6.60864075E-08
   8.90000015E-02  -6.86171617E-08
   9.00000036E-02  -7.13263475E-08
   9.09999982E-02  -7.46817008E-08
   9.20000002E-02  -7.91516754E-08
   9.30000022E-02  -8.51767297E-08
   9.39999968E-02  -9.31525292E-08
   9.49999988E-02  -1.03426139E-07
   9.60000008E-02  -1.16303561E-07
   9.70000029E-02  -1.32064287E-07
   9.79999974E-02  -1.50977328E-07
   9.89999995E-02  -1.73312941E-07
  0.100000001      -1.99345791E-07
  0.101000004      -2.29347791E-07
  0.101999998      -2.63571735E-07
  0.103000000      -3.02230092E-07
  0.104000002      -3.45475542E-07
  0.104999997      -3.93390451E-07
  0.105999999      -4.45991873E-07
  0.107000001      -5.03256160E-07
  0.108000003      -5.65163418E-07
  0.108999997      -6.31758439E-07
  0.109999999      -7.03219939E-07
  0.111000001      -7.79928087E-07
  0.112000003      -8.62519016E-07
  0.112999998      -9.51916206E-07
  0.114000000      -1.04933270E-06
  0.115000002      -1.15624175E-06
  0.115999997      -1.27432099E-06
  0.116999999      -1.40537713E-06
  0.118000001      -1.55126565E-06
  0.119000003      -1.71381703E-06
  0.119999997      -1.89478271E-06
  0.120999999      -2.09581003E-06
  0.122000001      -2.31844660E-06
  0.123000003      -2.56417570E-06
  0.123999998      -2.83446866E-06
  0.125000000      -3.13085002E-06
  0.126000002      -3.45495573E-06
  0.127000004      -3.80858069E-06
  0.128000006      -4.19370690E-06
  0.128999993      -4.61250875E-06
  0.129999995      -5.06734477E-06
  0.130999997      -5.56073974E-06
  0.131999999      -6.09537028E-06
  0.133000001      -6.67406130E-06
  0.134000003      -7.29980320E-06
  0.135000005      -7.97578559E-06
  0.136000007      -8.70544773E-06
  0.136999995      -9.49253899E-06
  0.137999997      -1.03411749E-05
  0.138999999      -1.12558691E-05
  0.140000001      -1.22415468E-05
  0.141000003      -1.33035219E-05
  0.142000005      -1.44474425E-05
  0.143000007      -1.56792103E-05
  0.143999994      -1.70048806E-05
  0.144999996      -1.84305773E-05
  0.145999998      -1.99624064E-05
  0.147000000      -2.16064145E-05
  0.148000002      -2.33685842E-05
  0.149000004      -2.52548543E-05
  0.150000006      -2.72712041E-05
  0.150999993      -2.94237270E-05
  0.151999995      -3.17187369E-05
  0.152999997      -3.41628584E-05
  0.153999999      -3.67630855E-05
  0.155000001      -3.95268180E-05
  0.156000003      -4.24618484E-05
  0.157000005      -4.55763038E-05
  0.158000007      -4.88785809E-05
  0.158999994      -5.23772615E-05
  0.159999996      -5.60809895E-05
  0.160999998      -5.99984305E-05
  0.162000000      -6.41381921E-05
  0.163000003      -6.85088162E-05
  0.164000005      -7.31187611E-05
  0.165000007      -7.79764378E-05
  0.165999994      -8.30902427E-05
  0.166999996      -8.84685578E-05
  0.167999998      -9.41197650E-05
  0.169000000      -1.00052202E-04
  0.170000002      -1.06274136E-04
  0.171000004      -1.12793648E-04
  0.172000006      -1.19618591E-04
  0.172999993      -1.26756451E-04
  0.173999995      -1.34214279E-04
  0.174999997      -1.41998622E-04
  0.175999999      -1.50115520E-04
  0.177000001      -1.58570459E-04
  0.178000003      -1.67368402E-04
  0.179000005      -1.76513844E-04
  0.180000007      -1.86010875E-04
  0.180999994      -1.95863075E-04
  0.181999996      -2.06073615E-04
  0.182999998      -2.16645145E-04
  0.184000000      -2.27579716E-04
  0.185000002      -2.38878725E-04
  0.186000004      -2.50542740E-04
  0.187000006      -2.62571470E-04
  0.187999994      -2.74963648E-04
  0.188999996      -2.87717034E-04
  0.189999998      -3.00828455E-04
  0.191000000      -3.14293866E-04
  0.192000002      -3.28108348E-04
  0.193000004      -3.42266198E-04
  0.194000006      -3.56761011E-04
  0.194999993      -3.71585542E-04
  0.195999995      -3.86731816E-04
  0.196999997      -4.02190897E-04
  0.197999999      -4.17952862E-04
  0.199000001      -4.34006564E-04
  0.200000003      -4.50339605E-04
  0.201000005      -4.66938392E-04
  0.202000007      -4.83787997E-04
  0.202999994      -5.00872382E-04
  0.203999996      -5.18174493E-04
  0.204999998      -5.35676489E-04
  0.206000000      -5.53359860E-04
  0.207000002      -5.71205630E-04
  0.208000004      -5.89194300E-04
  0.209000006      -6.07305963E-04
  0.209999993      -6.25520304E-04
  0.210999995      -6.43816427E-04
  0.211999997      -6.62172853E-04
  0.213000000      -6.80567464E-04
  0.214000002      -6.98977266E-04
  0.215000004      -7.17378862E-04
  0.216000006      -7.35748268E-04
  0.216999993      -7.54061097E-04
  0.217999995      -7.72292900E-04
  0.218999997      -7.90419348E-04
  0.219999999      -8.08416225E-04
  0.221000001      -8.26259784E-04
  0.222000003      -8.43926624E-04
  0.223000005      -8.61393812E-04
  0.224000007      -8.78638763E-04
  0.224999994      -8.95639241E-04
  0.225999996      -9.12373420E-04
  0.226999998      -9.28819529E-04
  0.228000000      -9.44956089E-04
  0.229000002      -9.60761914E-04
  0.230000004      -9.76216223E-04
  0.231000006      -9.91298701E-04
  0.231999993      -1.00598973E-03
  0.232999995      -1.02027063E-03
  0.233999997      -1.03412382E-03
  0.234999999      -1.04753266E-03
  0.236000001      -1.06048200E-03
  0.237000003      -1.07295800E-03
  0.238000005      -1.08494819E-03
  0.238999993      -1.09644153E-03
  0.239999995      -1.10742822E-03
  0.240999997      -1.11789943E-03
  0.241999999      -1.12784770E-03
  0.243000001      -1.13726628E-03
  0.244000003      -1.14614947E-03
  0.245000005      -1.15449226E-03
  0.246000007      -1.16229034E-03
  0.246999994      -1.16954034E-03
  0.247999996      -1.17623946E-03
  0.248999998      -1.18238607E-03
  0.250000000      -1.18797924E-03
  0.250999987      -1.19301956E-03
  0.252000004      -1.19750830E-03
  0.252999991      -1.20144803E-03
  0.254000008      -1.20484224E-03
  0.254999995      -1.20769569E-03
  0.256000012      -1.21001364E-03
  0.256999999      -1.21180236E-03
  0.257999986      -1.21306838E-03
  0.259000003      -1.21381867E-03
  0.259999990      -1.21406070E-03
  0.261000007      -1.21380202E-03
  0.261999995      -1.21305091E-03
  0.263000011      -1.21181598E-03
  0.263999999      -1.21010642E-03
  0.264999986      -1.20793190E-03
  0.266000003      -1.20530289E-03
  0.266999990      -1.20222999E-03
  0.268000007      -1.19872403E-03
  0.268999994      -1.19479571E-03
  0.270000011      -1.19045586E-03
  0.270999998      -1.18571462E-03
  0.272000015      -1.18058233E-03
  0.273000002      -1.17506878E-03
  0.273999989      -1.16918387E-03
  0.275000006      -1.16293726E-03
  0.275999993      -1.15633907E-03
  0.277000010      -1.14939967E-03
  0.277999997      -1.14212965E-03
  0.279000014      -1.13453972E-03
  0.280000001      -1.12664094E-03
  0.280999988      -1.11844437E-03
  0.282000005      -1.10996095E-03
  0.282999992      -1.10120128E-03
  0.284000009      -1.09217595E-03
  0.284999996      -1.08289544E-03
  0.286000013      -1.07337057E-03
  0.287000000      -1.06361182E-03
  0.287999988      -1.05363049E-03
  0.289000005      -1.04343833E-03
  0.289999992      -1.03304780E-03
  0.291000009      -1.02247193E-03
  0.291999996      -1.01172482E-03
  0.293000013      -1.00082101E-03
  0.294000000      -9.89775872E-04
  0.294999987      -9.78605123E-04
  0.296000004      -9.67325061E-04
  0.296999991      -9.55952681E-04
  0.298000008      -9.44505562E-04
  0.298999995      -9.33001866E-04
  0.300000012      -9.21460567E-04
  0.300999999      -9.09901399E-04
  0.301999986      -8.98345199E-04
  0.303000003      -8.86814028E-04
  0.303999990      -8.75331287E-04
  0.305000007      -8.63922061E-04
  0.305999994      -8.52612895E-04
  0.307000011      -8.41432251E-04
  0.307999998      -8.30410398E-04
  0.308999985      -8.19579582E-04
  0.310000002      -8.08973855E-04
  0.310999990      -7.98629189E-04
  0.312000006      -7.88583420E-04
  0.312999994      -7.78876070E-04
  0.314000010      -7.69548351E-04
  0.314999998      -7.60642928E-04
  0.316000015      -7.52203865E-04
  0.317000002      -7.44276738E-04
  0.317999989      -7.36908405E-04
  0.319000006      -7.30147294E-04
  0.319999993      -7.24043464E-04
  0.321000010      -7.18648720E-04
  0.321999997      -7.14016729E-04
  0.323000014      -7.10203021E-04
  0.324000001      -7.07265281E-04
  0.324999988      -7.05263112E-04
  0.326000005      -7.04257924E-04
  0.326999992      -7.04312813E-04
  0.328000009      -7.05492275E-04
  0.328999996      -7.07861967E-04
  0.330000013      -7.11488479E-04
  0.331000000      -7.16439099E-04
  0.331999987      -7.22781697E-04
  0.333000004      -7.30584492E-04
  0.333999991      -7.39916286E-04
  0.335000008      -7.50846288E-04
  0.335999995      -7.63444288E-04
  0.337000012      -7.77780486E-04
  0.338000000      -7.93925487E-04
  0.338999987      -8.11949954E-04
  0.340000004      -8.31924262E-04
  0.340999991      -8.53918260E-04
  0.342000008      -8.78000690E-04
  0.342999995      -9.04238899E-04
  0.344000012      -9.32698313E-04
  0.344999999      -9.63442144E-04
  0.345999986      -9.96531337E-04
  0.347000003      -1.03202369E-03
  0.347999990      -1.06997450E-03
  0.349000007      -1.11043546E-03
  0.349999994      -1.15345535E-03
  0.351000011      -1.19907921E-03
  0.351999998      -1.24734815E-03
  0.352999985      -1.29829952E-03
  0.354000002      -1.35196641E-03
  0.354999989      -1.40837720E-03
  0.356000006      -1.46755553E-03
  0.356999993      -1.52951945E-03
  0.358000010      -1.59428117E-03
  0.358999997      -1.66184676E-03
  0.360000014      -1.73221563E-03
  0.361000001      -1.80537987E-03
  0.361999989      -1.88132422E-03
  0.363000005      -1.96002563E-03
  0.363999993      -2.04145350E-03
  0.365000010      -2.12556869E-03
  0.365999997      -2.21232488E-03
  0.367000014      -2.30166689E-03
  0.368000001      -2.39353138E-03
  0.368999988      -2.48784735E-03
  0.370000005      -2.58453493E-03
  0.370999992      -2.68350542E-03
  0.372000009      -2.78466172E-03
  0.372999996      -2.88789812E-03
  0.374000013      -2.99309962E-03
  0.375000000      -3.10014305E-03
  0.375999987      -3.20889591E-03
  0.377000004      -3.31921782E-03
  0.377999991      -3.43095977E-03
  0.379000008      -3.54396459E-03
  0.379999995      -3.65806744E-03
  0.381000012      -3.77309648E-03
  0.381999999      -3.88887222E-03
  0.382999986      -4.00520861E-03
  0.384000003      -4.12191404E-03
  0.384999990      -4.23879130E-03
  0.386000007      -4.35563689E-03
  0.386999995      -4.47224453E-03
  0.388000011      -4.58840188E-03
  0.388999999      -4.70389519E-03
  0.389999986      -4.81850654E-03
  0.391000003      -4.93201707E-03
  0.391999990      -5.04420465E-03
  0.393000007      -5.15484810E-03
  0.393999994      -5.26372483E-03
  0.395000011      -5.37061226E-03
  0.395999998      -5.47529012E-03
  0.397000015      -5.57753909E-03
  0.398000002      -5.67714311E-03
  0.398999989      -5.77388890E-03
  0.400000006      -5.86756831E-03
  0.400999993      -5.95797831E-03
  0.402000010      -6.04492193E-03
  0.402999997      -6.12821011E-03
  0.404000014      -6.20765984E-03
  0.405000001      -6.28309743E-03
  0.405999988      -6.35435712E-03
  0.407000005      -6.42128382E-03
  0.407999992      -6.48373133E-03
  0.409000009      -6.54156506E-03
  0.409999996      -6.59466069E-03
  0.411000013      -6.64290693E-03
  0.412000000      -6.68620365E-03
  0.412999988      -6.72446378E-03
  0.414000005      -6.75761281E-03
  0.414999992      -6.78558927E-03
  0.416000009      -6.80834474E-03
  0.416999996      -6.82584476E-03
  0.418000013      -6.83806697E-03
  0.419000000      -6.84500393E-03
  0.419999987      -6.84666028E-03
  0.421000004      -6.84305560E-03
  0.421999991      -6.83422154E-03
  0.423000008      -6.82020467E-03
  0.423999995      -6.80106459E-03
  0.425000012      -6.77687395E-03
  0.425999999      -6.74771750E-03
  0.426999986      -6.71369303E-03
  0.428000003      -6.67490950E-03
  0.428999990      -6.63148705E-03
  0.430000007      -6.58355700E-03
  0.430999994      -6.53125998E-03
  0.432000011      -6.47474686E-03
  0.432999998      -6.41417690E-03
  0.433999985      -6.34971913E-03
  0.435000002      -6.28155051E-03
  0.435999990      -6.20985450E-03
  0.437000006      -6.13482157E-03
  0.437999994      -6.05664728E-03
  0.439000010      -5.97553281E-03
  0.439999998      -5.89168165E-03
  0.441000015      -5.80530101E-03
  0.442000002      -5.71660046E-03
  0.442999989      -5.62579092E-03
  0.444000006      -5.53308427E-03
  0.444999993      -5.43869287E-03
  0.446000010      -5.34282858E-03
  0.446999997      -5.24570327E-03
  0.448000014      -5.14752604E-03
  0.449000001      -5.04850503E-03
  0.449999988      -4.94884467E-03
  0.451000005      -4.84874565E-03
  0.451999992      -4.74840542E-03
  0.453000009      -4.64801490E-03
  0.453999996      -4.54776036E-03
  0.455000013      -4.44782292E-03
  0.456000000      -4.34837677E-03
  0.456999987      -4.24958998E-03
  0.458000004      -4.15162276E-03
  0.458999991      -4.05462971E-03
  0.460000008      -3.95875797E-03
  0.460999995      -3.86414747E-03
  0.462000012      -3.77093023E-03
  0.463000000      -3.67923104E-03
  0.463999987      -3.58916586E-03
  0.465000004      -3.50084295E-03
  0.465999991      -3.41436197E-03
  0.467000008      -3.32981325E-03
  0.467999995      -3.24727921E-03
  0.469000012      -3.16683366E-03
  0.469999999      -3.08854179E-03
  0.470999986      -3.01246135E-03
  0.472000003      -2.93864170E-03
  0.472999990      -2.86712544E-03
  0.474000007      -2.79794773E-03
  0.474999994      -2.73113698E-03
  0.476000011      -2.66671460E-03
  0.476999998      -2.60469574E-03
  0.477999985      -2.54508853E-03
  0.479000002      -2.48789438E-03
  0.479999989      -2.43310863E-03
  0.481000006      -2.38072057E-03
  0.481999993      -2.33071321E-03
  0.483000010      -2.28306488E-03
  0.483999997      -2.23774882E-03
  0.485000014      -2.19473406E-03
  0.486000001      -2.15398613E-03
  0.486999989      -2.11546663E-03
  0.488000005      -2.07913388E-03
  0.488999993      -2.04494270E-03
  0.490000010      -2.01284466E-03
  0.490999997      -1.98278879E-03
  0.492000014      -1.95472082E-03
  0.493000001      -1.92858453E-03
  0.493999988      -1.90432137E-03
  0.495000005      -1.88187091E-03
  0.495999992      -1.86117191E-03
  0.497000009      -1.84216211E-03
  0.497999996      -1.82477862E-03
  0.499000013      -1.80895801E-03
  0.500000000      -1.79463683E-03
  0.500999987      -1.78175117E-03
  0.501999974      -1.77023734E-03
  0.503000021      -1.76003145E-03
  0.504000008      -1.75106979E-03
  0.504999995      -1.74328918E-03
  0.505999982      -1.73662673E-03
  0.507000029      -1.73102017E-03
  0.508000016      -1.72640791E-03
  0.509000003      -1.72272953E-03
  0.509999990      -1.71992590E-03
  0.510999978      -1.71793893E-03
  0.512000024      -1.71671272E-03
  0.513000011      -1.71619293E-03
  0.513999999      -1.71632692E-03
  0.514999986      -1.71706441E-03
  0.515999973      -1.71835674E-03
  0.517000020      -1.72015722E-03
  0.518000007      -1.72242057E-03
  0.518999994      -1.72510301E-03
  0.519999981      -1.72816194E-03
  0.521000028      -1.73155614E-03
  0.522000015      -1.73524534E-03
  0.523000002      -1.73919101E-03
  0.523999989      -1.74335577E-03
  0.524999976      -1.74770423E-03
  0.526000023      -1.75220310E-03
  0.527000010      -1.75682141E-03
  0.527999997      -1.76153029E-03
  0.528999984      -1.76630344E-03
  0.529999971      -1.77111663E-03
  0.531000018      -1.77594810E-03
  0.532000005      -1.78077747E-03
  0.532999992      -1.78558636E-03
  0.533999979      -1.79035752E-03
  0.535000026      -1.79507490E-03
  0.536000013      -1.79972337E-03
  0.537000000      -1.80428824E-03
  0.537999988      -1.80875580E-03
  0.538999975      -1.81311264E-03
  0.540000021      -1.81734632E-03
  0.541000009      -1.82144565E-03
  0.541999996      -1.82540063E-03
  0.542999983      -1.82920322E-03
  0.544000030      -1.83284702E-03
  0.545000017      -1.83632760E-03
  0.546000004      -1.83964241E-03
  0.546999991      -1.84279028E-03
  0.547999978      -1.84577086E-03
  0.549000025      -1.84858439E-03
  0.550000012      -1.85123121E-03
  0.550999999      -1.85371167E-03
  0.551999986      -1.85602542E-03
  0.552999973      -1.85817224E-03
  0.554000020      -1.86015153E-03
  0.555000007      -1.86196354E-03
  0.555999994      -1.86360872E-03
  0.556999981      -1.86508871E-03
  0.558000028      -1.86640595E-03
  0.559000015      -1.86756393E-03
  0.560000002      -1.86856708E-03
  0.560999990      -1.86942029E-03
  0.561999977      -1.87012902E-03
  0.563000023      -1.87069876E-03
  0.564000010      -1.87113520E-03
  0.564999998      -1.87144359E-03
  0.565999985      -1.87162939E-03
  0.566999972      -1.87169726E-03
  0.568000019      -1.87165174E-03
  0.569000006      -1.87149714E-03
  0.569999993      -1.87123741E-03
  0.570999980      -1.87087606E-03
  0.572000027      -1.87041645E-03
  0.573000014      -1.86986208E-03
  0.574000001      -1.86921621E-03
  0.574999988      -1.86848233E-03
  0.575999975      -1.86766428E-03
  0.577000022      -1.86676614E-03
  0.578000009      -1.86579220E-03
  0.578999996      -1.86474726E-03
  0.579999983      -1.86363643E-03
  0.580999970      -1.86246517E-03
  0.582000017      -1.86123897E-03
  0.583000004      -1.85996329E-03
  0.583999991      -1.85864337E-03
  0.584999979      -1.85728399E-03
  0.586000025      -1.85588922E-03
  0.587000012      -1.85446232E-03
  0.588000000      -1.85300538E-03
  0.588999987      -1.85151980E-03
  0.589999974      -1.85000640E-03
  0.591000021      -1.84846541E-03
  0.592000008      -1.84689718E-03
  0.592999995      -1.84530241E-03
  0.593999982      -1.84368249E-03
  0.595000029      -1.84203952E-03
  0.596000016      -1.84037606E-03
  0.597000003      -1.83869537E-03
  0.597999990      -1.83700060E-03
  0.598999977      -1.83529488E-03
  0.600000024      -1.83358078E-03
  0.601000011      -1.83186017E-03
  0.601999998      -1.83013431E-03
  0.602999985      -1.82840379E-03
  0.603999972      -1.82666886E-03
  0.605000019      -1.82492950E-03
  0.606000006      -1.82318583E-03
  0.606999993      -1.82143773E-03
  0.607999980      -1.81968545E-03
  0.609000027      -1.81792898E-03
  0.610000014      -1.81616854E-03
  0.611000001      -1.81440415E-03
  0.611999989      -1.81263592E-03
  0.612999976      -1.81086385E-03
  0.614000022      -1.80908781E-03
  0.615000010      -1.80730782E-03
  0.615999997      -1.80552364E-03
  0.616999984      -1.80373539E-03
  0.617999971      -1.80194294E-03
  0.619000018      -1.80014619E-03
  0.620000005      -1.79834501E-03
  0.620999992      -1.79653952E-03
  0.621999979      -1.79472961E-03
  0.623000026      -1.79291551E-03
  0.624000013      -1.79109781E-03
  0.625000000      -1.78927707E-03
  0.625999987      -1.78745436E-03
  0.626999974      -1.78563048E-03
  0.628000021      -1.78380660E-03
  0.629000008      -1.78198365E-03
  0.629999995      -1.78016233E-03
  0.630999982      -1.77834369E-03
  0.632000029      -1.77652831E-03
  0.633000016      -1.77471736E-03
  0.634000003      -1.77291187E-03
  0.634999990      -1.77111360E-03
  0.635999978      -1.76932430E-03
  0.637000024      -1.76754629E-03
  0.638000011      -1.76578190E-03
  0.638999999      -1.76403334E-03
  0.639999986      -1.76230306E-03
  0.640999973      -1.76059280E-03
  0.642000020      -1.75890466E-03
  0.643000007      -1.75724016E-03
  0.643999994      -1.75560103E-03
  0.644999981      -1.75398868E-03
  0.646000028      -1.75240473E-03
  0.647000015      -1.75085058E-03
  0.648000002      -1.74932776E-03
  0.648999989      -1.74783776E-03
  0.649999976      -1.74638187E-03
  0.651000023      -1.74496160E-03
  0.652000010      -1.74357870E-03
  0.652999997      -1.74223504E-03
  0.653999984      -1.74093235E-03
  0.654999971      -1.73967262E-03
  0.656000018      -1.73845736E-03
  0.657000005      -1.73728773E-03
  0.657999992      -1.73616398E-03
  0.658999979      -1.73508585E-03
  0.660000026      -1.73405220E-03
  0.661000013      -1.73306139E-03
  0.662000000      -1.73211168E-03
  0.662999988      -1.73120131E-03
  0.663999975      -1.73032889E-03
  0.665000021      -1.72949361E-03
  0.666000009      -1.72869489E-03
  0.666999996      -1.72793248E-03
  0.667999983      -1.72720628E-03
  0.669000030      -1.72651582E-03
  0.670000017      -1.72585982E-03
  0.671000004      -1.72523665E-03
  0.671999991      -1.72464375E-03
  0.672999978      -1.72407797E-03
  0.674000025      -1.72353594E-03
  0.675000012      -1.72301417E-03
  0.675999999      -1.72250939E-03
  0.676999986      -1.72201847E-03
  0.677999973      -1.72153872E-03
  0.679000020      -1.72106782E-03
  0.680000007      -1.72060367E-03
  0.680999994      -1.72014441E-03
  0.681999981      -1.71968818E-03
  0.683000028      -1.71923358E-03
  0.684000015      -1.71877909E-03
  0.685000002      -1.71832344E-03
  0.685999990      -1.71786547E-03
  0.686999977      -1.71740388E-03
  0.688000023      -1.71693740E-03
  0.689000010      -1.71646487E-03
  0.689999998      -1.71598466E-03
  0.690999985      -1.71549548E-03
  0.691999972      -1.71499595E-03
  0.693000019      -1.71448477E-03
  0.694000006      -1.71396113E-03
  0.694999993      -1.71342446E-03
  0.695999980      -1.71287439E-03