 -0.159999996       0.00000000    
 -0.158999994       0.00000000    
 -0.158000007       0.00000000    
 -0.157000005       0.00000000    
 -0.156000003       0.00000000    
 -0.155000001       0.00000000    
 -0.153999999       0.00000000    
 -0.152999997       0.00000000    
 -0.151999995       0.00000000    
 -0.150999993       0.00000000    
 -0.150000006       0.00000000    
 -0.149000004       9.82808327E-35
 -0.148000002       1.10262573E-33
 -0.147000000       8.57985980E-35
 -0.145999998      -9.35198267E-32
 -0.144999996      -1.07172105E-30
 -0.143999994      -7.31176896E-30
 -0.143000007      -3.63523851E-29
 -0.142000005      -1.40635846E-28
 -0.141000003      -4.29823749E-28
 -0.140000001      -9.99634871E-28
 -0.138999999      -1.43756053E-27
 -0.137999997       8.92663907E-28
 -0.136999995       1.51601825E-26
 -0.136000007       6.52573906E-26
 -0.135000005       2.00447596E-25
 -0.134000003       4.98389945E-25
 -0.133000001       1.03269949E-24
 -0.131999999       1.75214152E-24
 -0.130999997       2.20186185E-24
 -0.129999995       1.04841320E-24
 -0.128999993      -4.48460364E-24
 -0.128000006      -1.88366574E-23
 -0.127000004      -4.70419025E-23
 -0.126000002      -9.09152538E-23
 -0.125000000      -1.41016662E-22
 -0.123999998      -1.64239591E-22
 -0.123000003      -9.05066301E-23
 -0.122000001       1.91561138E-22
 -0.120999999       8.12257737E-22
 -0.119999997       1.84882440E-21
 -0.119000003       3.18653378E-21
 -0.118000001       4.32165641E-21
 -0.116999999       4.16951535E-21
 -0.115999997       1.01960956E-21
 -0.115000002      -7.14268520E-21
 -0.114000000      -2.17067799E-20
 -0.112999998      -4.17723043E-20
 -0.112000003      -6.19472911E-20
 -0.111000001      -7.03675891E-20
 -0.109999999      -4.83896684E-20
 -0.108999997       2.60524638E-20
 -0.108000003       1.69531946E-19
 -0.107000001       3.78061581E-19
 -0.105999999       6.08186924E-19
 -0.104999997       7.60920033E-19
 -0.104000002       6.79920440E-19
 -0.103000000       1.78147769E-19
 -0.101999998      -8.95072289E-19
 -0.101000004      -2.54515534E-18
 -0.100000001      -4.50030011E-18
  -9.89999995E-02  -6.10257625E-18
  -9.79999974E-02  -6.29459589E-18
  -9.70000029E-02  -3.78594363E-18
  -9.60000008E-02   2.53670444E-18
  -9.49999988E-02   1.29580755E-17
  -9.39999968E-02   2.61582237E-17
  -9.30000022E-02   3.85723253E-17
  -9.20000002E-02   4.42735188E-17
  -9.09999982E-02   3.58058992E-17
  -9.00000036E-02   6.27114408E-18
  -8.90000015E-02  -4.73687261E-17
  -8.79999995E-02  -1.20359319E-16
  -8.69999975E-02  -1.96831465E-16
  -8.60000029E-02  -2.48865136E-16
  -8.50000009E-02  -2.39841667E-16
  -8.39999989E-02  -1.33396757E-16
  -8.29999968E-02   9.21933688E-17
  -8.20000023E-02   4.26641496E-16
  -8.10000002E-02   8.12349701E-16
  -7.99999982E-02   1.13830397E-15
  -7.90000036E-02   1.25069370E-15
  -7.80000016E-02   9.85490117E-16
  -7.69999996E-02   2.22676624E-16
  -7.59999976E-02  -1.04647892E-15
  -7.50000030E-02  -2.65702462E-15
  -7.40000010E-02  -4.23797858E-15
  -7.29999989E-02  -5.23673927E-15
  -7.19999969E-02  -5.01940840E-15
  -7.10000023E-02  -3.04813446E-15
  -7.00000003E-02   8.90236074E-16
  -6.89999983E-02   6.45971212E-15
  -6.80000037E-02   1.26338395E-14
  -6.70000017E-02   1.77223789E-14
  -6.59999996E-02   1.96298429E-14
  -6.49999976E-02   1.63579054E-14
  -6.40000030E-02   6.68659836E-15
  -6.30000010E-02  -9.11679518E-15
  -6.19999990E-02  -2.87810479E-14
  -6.10000007E-02  -4.79482143E-14
  -5.99999987E-02  -6.07163178E-14
  -5.90000004E-02  -6.08673742E-14
  -5.79999983E-02  -4.36419902E-14
  -5.70000000E-02  -7.69828096E-15
  -5.60000017E-02   4.32905258E-14
  -5.49999997E-02   1.00015807E-13
  -5.40000014E-02   1.48403547E-13
  -5.29999994E-02   1.72189276E-13
  -5.20000011E-02   1.56952752E-13
  -5.09999990E-02   9.48437021E-14
  -5.00000007E-02  -1.12110198E-14
  -4.89999987E-02  -1.45222850E-13
  -4.80000004E-02  -2.79000130E-13
  -4.69999984E-02  -3.76760933E-13
  -4.60000001E-02  -4.03149112E-13
  -4.50000018E-02  -3.33194274E-13
  -4.39999998E-02  -1.61803622E-13
  -4.30000015E-02   9.00857283E-14
  -4.19999994E-02   3.75271266E-13
  -4.10000011E-02   6.27402752E-13
  -3.99999991E-02   7.75049621E-13
  -3.90000008E-02   7.60180059E-13
  -3.79999988E-02   5.56665066E-13
  -3.70000005E-02   1.83487801E-13
  -3.59999985E-02  -2.92197148E-13
  -3.50000001E-02  -7.64999880E-13
  -3.40000018E-02  -1.11380046E-12
  -3.29999998E-02  -1.23261373E-12
  -3.20000015E-02  -1.06234748E-12
  -3.09999995E-02  -6.14360993E-13
  -2.99999993E-02   2.24660073E-14
  -2.89999992E-02   6.95999194E-13
  -2.80000009E-02   1.22576612E-12
  -2.70000007E-02   1.45153713E-12
  -2.60000005E-02   1.28328977E-12
  -2.50000004E-02   7.37788736E-13
  -2.40000002E-02  -5.14207478E-14
  -2.30000000E-02  -8.57956013E-13
  -2.19999999E-02  -1.41874316E-12
  -2.09999997E-02  -1.51054408E-12
  -1.99999996E-02  -1.02685156E-12
  -1.89999994E-02  -3.16735028E-14
  -1.79999992E-02   1.23018425E-12
  -1.70000009E-02   2.37693003E-12
  -1.60000008E-02   2.98366757E-12
  -1.49999997E-02   2.70651557E-12
  -1.40000004E-02   1.40472876E-12
  -1.30000003E-02  -7.76166349E-13
  -1.20000001E-02  -3.39165566E-12
  -1.09999999E-02  -5.77162233E-12
  -9.99999978E-03  -7.17266654E-12
  -8.99999961E-03  -6.97795554E-12
  -8.00000038E-03  -4.89455048E-12
  -7.00000022E-03  -1.09131053E-12
  -6.00000005E-03   3.77082220E-12
  -4.99999989E-03   8.64053967E-12
  -4.00000019E-03   1.23001661E-11
  -3.00000003E-03   1.36663259E-11
  -2.00000009E-03   1.20940948E-11
  -1.00000005E-03   7.60114801E-12
   0.00000000       9.40483043E-13
   1.00000005E-03  -6.51600648E-12
   2.00000009E-03  -1.30725248E-11
   3.00000003E-03  -1.71214865E-11
   4.00000019E-03  -1.75719595E-11
   4.99999989E-03  -1.41783313E-11
   6.00000005E-03  -7.66868860E-12
   7.00000022E-03   3.82054089E-13
   8.00000038E-03   7.92348045E-12
   8.99999961E-03   1.29650015E-11
   9.99999978E-03   1.41404440E-11
   1.09999999E-02   1.11451855E-11
   1.20000001E-02   4.90891746E-12
   1.30000003E-02  -2.57234858E-12
   1.40000004E-02  -8.73292758E-12
   1.49999997E-02  -1.11561073E-11
   1.60000008E-02  -8.33327591E-12
   1.70000009E-02  -2.49967419E-13
   1.79999992E-02   1.13905101E-11
   1.89999994E-02   2.34152212E-11
   1.99999996E-02   3.18913611E-11
   2.09999997E-02   3.31569910E-11
   2.19999999E-02   2.49256223E-11
   2.30000000E-02   7.16668001E-12
   2.40000002E-02  -1.75109666E-11
   2.50000004E-02  -4.41426340E-11
   2.60000005E-02  -6.63681193E-11
   2.70000007E-02  -7.78962797E-11
   2.80000009E-02  -7.41455231E-11
   2.89999992E-02  -5.36462090E-11
   2.99999993E-02  -1.88069681E-11
   3.09999995E-02   2.42291222E-11
   3.20000015E-02   6.67018732E-11
   3.29999998E-02   9.91378368E-11
   3.40000018E-02   1.13626171E-10
   3.50000001E-02   1.05911099E-10
   3.59999985E-02   7.67369848E-11
   3.70000005E-02   3.20234776E-11
   3.79999988E-02  -1.82836784E-11
   3.90000008E-02  -6.25034399E-11
   3.99999991E-02  -9.01466610E-11
   4.10000011E-02  -9.47545375E-11
   4.19999994E-02  -7.58764093E-11
   4.30000015E-02  -3.95708327E-11
   4.39999998E-02   2.84628744E-12
   4.50000018E-02   3.76335976E-11
   4.60000001E-02   5.24130982E-11
   4.69999984E-02   3.99644970E-11
   4.80000004E-02   9.69198788E-13
   4.89999987E-02  -5.51799127E-11
   5.00000007E-02  -1.11955209E-10
   5.09999990E-02  -1.49507018E-10
   5.20000011E-02  -1.49932899E-10
   5.29999994E-02  -1.02735542E-10
   5.40000014E-02  -9.00135608E-12
   5.49999997E-02   1.16995705E-10
   5.60000017E-02   2.49521209E-10
   5.70000000E-02   3.56393387E-10
   5.79999983E-02   4.06361667E-10
   5.90000004E-02   3.77202686E-10
   5.99999987E-02   2.62517591E-10
   6.10000007E-02   7.53354532E-11
   6.19999990E-02  -1.52743637E-10
   6.30000010E-02  -3.77111925E-10
   6.40000030E-02  -5.49488455E-10
   6.49999976E-02  -6.29037877E-10
   6.59999996E-02  -5.92652538E-10
   6.70000017E-02  -4.41756798E-10
   6.80000037E-02  -2.03650902E-10
   6.89999983E-02   7.33711078E-11
   7.00000003E-02   3.30381833E-10
   7.10000023E-02   5.11467202E-10
   7.19999969E-02   5.77470738E-10
   7.29999989E-02   5.16384879E-10
   7.40000010E-02   3.47536416E-10
   7.50000030E-02   1.18081517E-10
   7.59999976E-02  -1.07826567E-10
   7.69999996E-02  -2.64941791E-10
   7.80000016E-02  -3.04190478E-10
   7.90000036E-02  -2.06966513E-10
   7.99999982E-02   7.43878917E-12
   8.10000002E-02   2.83710250E-10
   8.20000023E-02   5.41941714E-10
   8.29999968E-02   6.96475100E-10
   8.39999989E-02   6.77949419E-10
   8.50000009E-02   4.53225624E-10
   8.60000029E-02   3.79743945E-11
   8.69999975E-02  -5.01849173E-10
   8.79999995E-02  -1.06093045E-09
   8.90000015E-02  -1.51621538E-09
   9.00000036E-02  -1.75473247E-09
   9.09999982E-02  -1.70125602E-09
   9.20000002E-02  -1.33901856E-09
   9.30000022E-02  -7.17907345E-10
   9.39999968E-02   5.27410858E-11
   9.49999988E-02   8.26049951E-10
   9.60000008E-02   1.44986656E-09
   9.70000029E-02   1.80220328E-09
   9.79999974E-02   1.82142357E-09
   9.89999995E-02   1.52347623E-09
  0.100000001       1.00115638E-09
  0.101000004       4.04446171E-10
  0.101999998      -9.44371317E-11
  0.103000000      -3.43691742E-10
  0.104000002      -2.52321497E-10
  0.104999997       1.81765963E-10
  0.105999999       8.63613625E-10
  0.107000001       1.61630409E-09
  0.108000003       2.21712981E-09
  0.108999997       2.44746601E-09
  0.109999999       2.14524398E-09
  0.111000001       1.24768229E-09
  0.112000003      -1.86382382E-10
  0.112999998      -1.98086680E-09
  0.114000000      -3.87371912E-09
  0.115000002      -5.56885693E-09
  0.115999997      -6.79726320E-09
  0.116999999      -7.37301598E-09
  0.118000001      -7.23061566E-09
  0.119000003      -6.43387787E-09
  0.119999997      -5.15312548E-09
  0.120999999      -3.61492325E-09
  0.122000001      -2.03547712E-09
  0.123000003      -5.53293522E-10
  0.123999998       8.22356183E-10
  0.125000000       2.23363017E-09
  0.126000002       3.95983069E-09
  0.127000004       6.36791775E-09
  0.128000006       9.83763560E-09
  0.128999993       1.46776697E-08
  0.129999995       2.10523012E-08
  0.130999997       2.89366486E-08
  0.131999999       3.81128551E-08
  0.133000001       4.82107723E-08
  0.134000003       5.87865721E-08
  0.135000005       6.94237485E-08
  0.136000007       7.98351252E-08
  0.136999995       8.99434696E-08
  0.137999997       9.99222820E-08
  0.138999999       1.10186654E-07
  0.140000001       1.21335404E-07
  0.141000003       1.34056606E-07
  0.142000005       1.49017879E-07
  0.143000007       1.66766583E-07
  0.143999994       1.87664256E-07
  0.144999996       2.11872049E-07
  0.145999998       2.39393017E-07
  0.147000000       2.70163980E-07
  0.148000002       3.04177632E-07
  0.149000004       3.41607802E-07
  0.150000006       3.82908866E-07
  0.150999993       4.28864610E-07
  0.151999995       4.80573249E-07
  0.152999997       5.39368614E-07
  0.153999999       6.06693845E-07
  0.155000001       6.83954511E-07
  0.156000003       7.72385363E-07
  0.157000005       8.72963199E-07
  0.158000007       9.86389864E-07
  0.158999994       1.11315535E-06
  0.159999996       1.25367103E-06
  0.160999998       1.40845043E-06
  0.162000000       1.57830129E-06
  0.163000003       1.76448850E-06
  0.164000005       1.96883389E-06
  0.165000007       2.19373169E-06
  0.165999994       2.44207718E-06
  0.166999996       2.71712452E-06
  0.167999998       3.02230751E-06
  0.169000000       3.36106655E-06
  0.170000002       3.73672538E-06
  0.171000004       4.15244858E-06
  0.172000006       4.61129594E-06
  0.172999993       5.11636836E-06
  0.173999995       5.67101779E-06
  0.174999997       6.27907411E-06
  0.175999999       6.94504570E-06
  0.177000001       7.67424626E-06
  0.178000003       8.47282172E-06
  0.179000005       9.34767013E-06
  0.180000007       1.03062757E-05
  0.180999994       1.13564902E-05
  0.181999996       1.25063289E-05
  0.182999998       1.37638172E-05
  0.184000000       1.51369422E-05
  0.185000002       1.66337268E-05
  0.186000004       1.82624208E-05
  0.187000006       2.00317754E-05
  0.187999994       2.19513440E-05
  0.188999996       2.40317549E-05
  0.189999998       2.62848971E-05
  0.191000000       2.87239709E-05
  0.192000002       3.13634118E-05
  0.193000004       3.42186868E-05
  0.194000006       3.73060284E-05
  0.194999993       4.06421423E-05
  0.195999995       4.42440105E-05
  0.196999997       4.81287752E-05
  0.197999999       5.23137860E-05
  0.199000001       5.68167852E-05
  0.200000003       6.16561811E-05
  0.201000005       6.68513821E-05
  0.202000007       7.24231140E-05
  0.202999994       7.83935830E-05
  0.203999996       8.47865522E-05
  0.204999998       9.16272111E-05
  0.206000000       9.89419568E-05
  0.207000002       1.06758031E-04
  0.208000004       1.15103168E-04
  0.209000006       1.24005324E-04
  0.209999993       1.33492489E-04
  0.210999995       1.43592668E-04
  0.211999997       1.54334077E-04
  0.213000000       1.65745369E-04
  0.214000002       1.77855967E-04
  0.215000004       1.90696373E-04
  0.216000006       2.04298311E-04
  0.216999993       2.18694840E-04
  0.217999995       2.33920160E-04
  0.218999997       2.50009325E-04
  0.219999999       2.66997784E-04
  0.221000001       2.84921000E-04
  0.222000003       3.03813926E-04
  0.223000005       3.23710759E-04
  0.224000007       3.44644883E-04
  0.224999994       3.66648746E-04
  0.225999996       3.89754074E-04
  0.226999998       4.13992180E-04
  0.228000000       4.39394091E-04
  0.229000002       4.65990888E-04
  0.230000004       4.93813655E-04
  0.231000006       5.22893330E-04
  0.231999993       5.53260557E-04
  0.232999995       5.84944966E-04
  0.233999997       6.17974903E-04
  0.234999999       6.52376912E-04
  0.236000001       6.88175205E-04
  0.237000003       7.25391321E-04
  0.238000005       7.64044235E-04
  0.238999993       8.04150361E-04
  0.239999995       8.45723669E-04
  0.240999997       8.88776151E-04
  0.241999999       9.33317991E-04
  0.243000001       9.79357748E-04
  0.244000003       1.02690235E-03
  0.245000005       1.07595709E-03
  0.246000007       1.12652488E-03
  0.246999994       1.17860606E-03
  0.247999996       1.23219809E-03
  0.248999998       1.28729467E-03
  0.250000000       1.34388544E-03
  0.250999987       1.40195561E-03
  0.252000004       1.46148645E-03
  0.252999991       1.52245525E-03
  0.254000008       1.58483558E-03
  0.254999995       1.64859823E-03
  0.256000012       1.71371119E-03
  0.256999999       1.78014056E-03
  0.257999986       1.84785028E-03
  0.259000003       1.91680191E-03
  0.259999990       1.98695459E-03
  0.261000007       2.05826480E-03
  0.261999995       2.13068514E-03
  0.263000011       2.20416440E-03
  0.263999999       2.27864785E-03
  0.264999986       2.35407613E-03
  0.266000003       2.43038684E-03
  0.266999990       2.50751502E-03
  0.268000007       2.58539314E-03
  0.268999994       2.66395253E-03
  0.270000011       2.74312426E-03
  0.270999998       2.82283826E-03
  0.272000015       2.90302513E-03
  0.273000002       2.98361480E-03
  0.273999989       3.06453649E-03
  0.275000006       3.14571871E-03
  0.275999993       3.22708813E-03
  0.277000010       3.30857025E-03
  0.277999997       3.39008868E-03
  0.279000014       3.47156543E-03
  0.280000001       3.55292251E-03
  0.280999988       3.63408215E-03
  0.282000005       3.71496798E-03
  0.282999992       3.79550550E-03
  0.284000009       3.87562299E-03
  0.284999996       3.95525200E-03
  0.286000013       4.03432688E-03
  0.287000000       4.11278382E-03
  0.287999988       4.19056229E-03
  0.289000005       4.26760223E-03
  0.289999992       4.34384495E-03
  0.291000009       4.41923272E-03
  0.291999996       4.49370872E-03
  0.293000013       4.56721801E-03
  0.294000000       4.63970844E-03
  0.294999987       4.71113017E-03
  0.296000004       4.78143804E-03
  0.296999991       4.85059107E-03
  0.298000008       4.91855433E-03
  0.298999995       4.98529663E-03
  0.300000012       5.05079096E-03
  0.300999999       5.11501497E-03
  0.301999986       5.17794816E-03
  0.303000003       5.23957191E-03
  0.303999990       5.29986946E-03
  0.305000007       5.35882451E-03
  0.305999994       5.41642262E-03
  0.307000011       5.47265029E-03
  0.307999998       5.52749820E-03
  0.308999985       5.58095938E-03
  0.310000002       5.63303102E-03
  0.310999990       5.68371406E-03
  0.312000006       5.73301408E-03
  0.312999994       5.78094041E-03
  0.314000010       5.82750421E-03
  0.314999998       5.87271806E-03
  0.316000015       5.91659546E-03
  0.317000002       5.95915085E-03
  0.317999989       6.00039586E-03
  0.319000006       6.04034262E-03
  0.319999993       6.07900321E-03
  0.321000010       6.11638976E-03
  0.321999997       6.15251483E-03
  0.323000014       6.18739286E-03
  0.324000001       6.22104108E-03
  0.324999988       6.25347765E-03
  0.326000005       6.28472352E-03
  0.326999992       6.31479966E-03
  0.328000009       6.34372700E-03
  0.328999996       6.37152651E-03
  0.330000013       6.39821636E-03
  0.331000000       6.42381283E-03
  0.331999987       6.44832989E-03
  0.333000004       6.47177920E-03
  0.333999991       6.49417145E-03
  0.335000008       6.51551597E-03
  0.335999995       6.53582346E-03
  0.337000012       6.55510323E-03
  0.338000000       6.57336740E-03
  0.338999987       6.59062853E-03
  0.340000004       6.60689967E-03
  0.340999991       6.62219338E-03
  0.342000008       6.63652271E-03
  0.342999995       6.64989837E-03
  0.344000012       6.66232966E-03
  0.344999999       6.67382265E-03
  0.345999986       6.68438245E-03
  0.347000003       6.69401139E-03
  0.347999990       6.70271274E-03
  0.349000007       6.71048881E-03
  0.349999994       6.71734475E-03
  0.351000011       6.72328658E-03
  0.351999998       6.72832318E-03
  0.352999985       6.73246523E-03
  0.354000002       6.73572486E-03
  0.354999989       6.73811464E-03
  0.356000006       6.73964759E-03
  0.356999993       6.74033444E-03
  0.358000010       6.74018590E-03
  0.358999997       6.73921127E-03
  0.360000014       6.73741987E-03
  0.361000001       6.73482195E-03
  0.361999989       6.73142774E-03
  0.363000005       6.72725122E-03
  0.363999993       6.72230916E-03
  0.365000010       6.71662064E-03
  0.365999997       6.71020756E-03
  0.367000014       6.70309504E-03
  0.368000001       6.69530919E-03
  0.368999988       6.68687560E-03
  0.370000005       6.67782221E-03
  0.370999992       6.66817511E-03
  0.372000009       6.65796082E-03
  0.372999996       6.64720638E-03
  0.374000013       6.63593970E-03
  0.375000000       6.62419014E-03
  0.375999987       6.61198841E-03
  0.377000004       6.59936760E-03
  0.377999991       6.58636214E-03
  0.379000008       6.57300884E-03
  0.379999995       6.55934541E-03
  0.381000012       6.54541142E-03
  0.381999999       6.53124647E-03
  0.382999986       6.51688920E-03
  0.384000003       6.50237873E-03
  0.384999990       6.48775464E-03
  0.386000007       6.47305511E-03
  0.386999995       6.45831833E-03
  0.388000011       6.44358248E-03
  0.388999999       6.42888714E-03
  0.389999986       6.41426956E-03
  0.391000003       6.39976794E-03
  0.391999990       6.38542045E-03
  0.393000007       6.37126481E-03
  0.393999994       6.35733968E-03
  0.395000011       6.34368183E-03
  0.395999998       6.33032760E-03
  0.397000015       6.31731283E-03
  0.398000002       6.30467059E-03
  0.398999989       6.29243394E-03
  0.400000006       6.28063316E-03
  0.400999993       6.26929617E-03
  0.402000010       6.25845045E-03
  0.402999997       6.24812068E-03
  0.404000014       6.23833109E-03
  0.405000001       6.22910401E-03
  0.405999988       6.22046180E-03
  0.407000005       6.21242495E-03
  0.407999992       6.20501349E-03
  0.409000009       6.19824557E-03
  0.409999996       6.19213656E-03
  0.411000013       6.18669996E-03
  0.412000000       6.18194696E-03
  0.412999988       6.17788685E-03
  0.414000005       6.17452478E-03
  0.414999992       6.17186539E-03
  0.416000009       6.16991008E-03
  0.416999996       6.16865978E-03
  0.418000013       6.16811356E-03
  0.419000000       6.16826862E-03
  0.419999987       6.16912218E-03
  0.421000004       6.17066910E-03
  0.421999991       6.17290335E-03
  0.423000008       6.17581792E-03
  0.423999995       6.17940165E-03
  0.425000012       6.18364150E-03
  0.425999999       6.18852209E-03
  0.426999986       6.19402574E-03
  0.428000003       6.20013149E-03
  0.428999990       6.20681839E-03
  0.430000007       6.21406408E-03
  0.430999994       6.22184528E-03
  0.432000011       6.23013731E-03
  0.432999998       6.23891642E-03
  0.433999985       6.24815607E-03
  0.435000002       6.25783019E-03
  0.435999990       6.26791036E-03
  0.437000006       6.27836585E-03
  0.437999994       6.28916500E-03
  0.439000010       6.30027428E-03
  0.439999998       6.31165784E-03
  0.441000015       6.32327935E-03
  0.442000002       6.33510202E-03
  0.442999989       6.34708861E-03
  0.444000006       6.35920092E-03
  0.444999993       6.37140078E-03
  0.446000010       6.38365000E-03
  0.446999997       6.39590807E-03
  0.448000014       6.40813541E-03
  0.449000001       6.42029056E-03
  0.449999988       6.43233117E-03
  0.451000005       6.44421577E-03
  0.451999992       6.45590061E-03
  0.453000009       6.46734238E-03
  0.453999996       6.47849729E-03
  0.455000013       6.48932299E-03
  0.456000000       6.49977475E-03
  0.456999987       6.50980882E-03
  0.458000004       6.51938189E-03
  0.458999991       6.52845018E-03
  0.460000008       6.53697085E-03
  0.460999995       6.54490106E-03
  0.462000012       6.55219890E-03
  0.463000000       6.55882154E-03
  0.463999987       6.56472705E-03
  0.465000004       6.56987401E-03
  0.465999991       6.57422049E-03
  0.467000008       6.57772506E-03
  0.467999995       6.58034533E-03
  0.469000012       6.58203987E-03
  0.469999999       6.58276910E-03
  0.470999986       6.58249343E-03
  0.472000003       6.58117607E-03
  0.472999990       6.57878118E-03
  0.474000007       6.57527428E-03
  0.474999994       6.57062186E-03
  0.476000011       6.56479131E-03
  0.476999998       6.55775098E-03
  0.477999985       6.54946873E-03
  0.479000002       6.53991243E-03
  0.479999989       6.52905181E-03
  0.481000006       6.51685614E-03
  0.481999993       6.50329702E-03
  0.483000010       6.48834696E-03
  0.483999997       6.47198223E-03
  0.485000014       6.45418046E-03
  0.486000001       6.43492211E-03
  0.486999989       6.41418993E-03
  0.488000005       6.39196765E-03
  0.488999993       6.36824034E-03
  0.490000010       6.34299312E-03
  0.490999997       6.31621247E-03
  0.492000014       6.28788583E-03
  0.493000001       6.25800109E-03
  0.493999988       6.22654893E-03
  0.495000005       6.19352050E-03
  0.495999992       6.15891162E-03
  0.497000009       6.12271950E-03
  0.497999996       6.08494505E-03
  0.499000013       6.04559202E-03
  0.500000000       6.00466644E-03
  0.500999987       5.96217718E-03
  0.501999974       5.91813540E-03
  0.503000021       5.87255415E-03
  0.504000008       5.82544738E-03
  0.504999995       5.77683188E-03
  0.505999982       5.72672393E-03
  0.507000029       5.67514356E-03
  0.508000016       5.62211126E-03
  0.509000003       5.56765171E-03
  0.509999990       5.51179145E-03
  0.510999978       5.45456121E-03
  0.512000024       5.39599545E-03
  0.513000011       5.33613237E-03
  0.513999999       5.27501479E-03
  0.514999986       5.21268835E-03
  0.515999973       5.14920056E-03
  0.517000020       5.08460077E-03
  0.518000007       5.01894020E-03
  0.518999994       4.95227193E-03
  0.519999981       4.88464953E-03
  0.521000028       4.81612887E-03
  0.522000015       4.74676816E-03
  0.523000002       4.67662886E-03
  0.523999989       4.60577616E-03
  0.524999976       4.53427900E-03
  0.526000023       4.46220953E-03
  0.527000010       4.38964367E-03
  0.527999997       4.31666058E-03
  0.528999984       4.24334034E-03
  0.529999971       4.16976493E-03
  0.531000018       4.09601675E-03
  0.532000005       4.02217871E-03
  0.532999992       3.94833414E-03
  0.533999979       3.87456617E-03
  0.535000026       3.80096002E-03
  0.536000013       3.72760114E-03
  0.537000000       3.65457730E-03
  0.537999988       3.58197768E-03
  0.538999975       3.50989262E-03
  0.540000021       3.43841407E-03
  0.541000009       3.36763426E-03
  0.541999996       3.29764537E-03
  0.542999983       3.22853890E-03
  0.544000030       3.16040451E-03
  0.545000017       3.09333112E-03
  0.546000004       3.02740466E-03
  0.546999991       2.96270940E-03
  0.547999978       2.89932685E-03
  0.549000025       2.83733662E-03
  0.550000012       2.77681719E-03
  0.550999999       2.71784444E-03
  0.551999986       2.66049313E-03
  0.552999973       2.60483590E-03
  0.554000020       2.55094422E-03
  0.555000007       2.49888608E-03
  0.555999994       2.44872668E-03
  0.556999981       2.40052771E-03
  0.558000028       2.35434575E-03
  0.559000015       2.31023319E-03
  0.560000002       2.26823706E-03
  0.560999990       2.22839974E-03
  0.561999977       2.19075801E-03
  0.563000023       2.15534447E-03
  0.564000010       2.12218775E-03
  0.564999998       2.09131255E-03
  0.565999985       2.06274004E-03
  0.566999972       2.03648722E-03
  0.568000019       2.01256853E-03
  0.569000006       1.99099397E-03
  0.569999993       1.97176915E-03
  0.570999980       1.95489475E-03
  0.572000027       1.94036658E-03
  0.573000014       1.92817464E-03
  0.574000001       1.91830331E-03
  0.574999988       1.91073155E-03
  0.575999975       1.90543290E-03
  0.577000022       1.90237619E-03
  0.578000009       1.90152647E-03
  0.578999996       1.90284522E-03
  0.579999983       1.90629170E-03
  0.580999970       1.91182247E-03
  0.582000017       1.91939215E-03
  0.583000004       1.92895264E-03
  0.583999991       1.94045308E-03
  0.584999979       1.95383909E-03
  0.586000025       1.96905225E-03
  0.587000012       1.98602956E-03
  0.588000000       2.00470514E-03
  0.588999987       2.02500913E-03
  0.589999974       2.04686960E-03
  0.591000021       2.07021320E-03
  0.592000008       2.09496589E-03
  0.592999995       2.12105457E-03
  0.593999982       2.14840611E-03
  0.595000029       2.17694836E-03
  0.596000016       2.20660865E-03
  0.597000003       2.23731319E-03
  0.597999990       2.26898724E-03
  0.598999977       2.30155396E-03
  0.600000024       2.33493559E-03
  0.601000011       2.36905296E-03
  0.601999998       2.40382738E-03
  0.602999985       2.43918062E-03
  0.603999972       2.47503724E-03
  0.605000019       2.51132343E-03
  0.606000006       2.54796864E-03
  0.606999993       2.58490420E-03
  0.607999980       2.62206350E-03
  0.609000027       2.65938137E-03
  0.610000014       2.69679329E-03
  0.611000001       2.73423572E-03
  0.611999989       2.77164555E-03
  0.612999976       2.80896109E-03
  0.614000022       2.84612249E-03
  0.615000010       2.88307178E-03
  0.615999997       2.91975425E-03
  0.616999984       2.95611843E-03
  0.617999971       2.99211615E-03
  0.619000018       3.02770175E-03
  0.620000005       3.06283287E-03
  0.620999992       3.09746875E-03
  0.621999979       3.13157099E-03
  0.623000026       3.16510326E-03
  0.624000013       3.19803110E-03
  0.625000000       3.23032215E-03
  0.625999987       3.26194591E-03
  0.626999974       3.29287420E-03
  0.628000021       3.32308165E-03
  0.629000008       3.35254497E-03
  0.629999995       3.38124391E-03
  0.630999982       3.40916053E-03
  0.632000029       3.43627972E-03
  0.633000016       3.46258818E-03
  0.634000003       3.48807545E-03
  0.634999990       3.51273245E-03
  0.635999978       3.53655219E-03
  0.637000024       3.55952932E-03
  0.638000011       3.58165940E-03
  0.638999999       3.60293989E-03
  0.639999986       3.62336915E-03
  0.640999973       3.64294671E-03
  0.642000020       3.66167375E-03
  0.643000007       3.67955328E-03
  0.643999994       3.69659043E-03
  0.644999981       3.71279172E-03
  0.646000028       3.72816622E-03
  0.647000015       3.74272442E-03
  0.648000002       3.75647796E-03
  0.648999989       3.76943988E-03
  0.649999976       3.78162321E-03
  0.651000023       3.79304145E-03
  0.652000010       3.80370766E-03
  0.652999997       3.81363533E-03
  0.653999984       3.82283796E-03
  0.654999971       3.83132999E-03
  0.656000018       3.83912609E-03
  0.657000005       3.84624186E-03
  0.657999992       3.85269453E-03
  0.658999979       3.85850226E-03
  0.660000026       3.86368344E-03
  0.661000013       3.86825809E-03
  0.662000000       3.87224602E-03
  0.662999988       3.87566653E-03
  0.663999975       3.87853920E-03
  0.665000021       3.88088240E-03
  0.666000009       3.88271385E-03
  0.666999996       3.88405100E-03
  0.667999983       3.88491061E-03
  0.669000030       3.88530944E-03
  0.670000017       3.88526451E-03
  0.671000004       3.88479326E-03
  0.671999991       3.88391432E-03
  0.672999978       3.88264726E-03
  0.674000025       3.88101209E-03
  0.675000012       3.87902884E-03
  0.675999999       3.87671730E-03
  0.676999986       3.87409562E-03
  0.677999973       3.87118012E-03
  0.679000020       3.86798568E-03
  0.680000007       3.86452535E-03
  0.680999994       3.86081077E-03
  0.681999981       3.85685335E-03
  0.683000028       3.85266473E-03
  0.684000015       3.84825771E-03
  0.685000002       3.84364603E-03
  0.685999990       3.83884530E-03
  0.686999977       3.83387133E-03
  0.688000023       3.82874045E-03
  0.689000010       3.82346800E-03
  0.689999998       3.81806795E-03
  0.690999985       3.81255150E-03
  0.691999972       3.80692794E-03
  0.693000019       3.80120403E-03
  0.694000006       3.79538559E-03
  0.694999993       3.78947752E-03
  0.695999980       3.78348562E-03