 -0.159999996       0.00000000    
 -0.158999994       0.00000000    
 -0.158000007       0.00000000    
 -0.157000005       0.00000000    
 -0.156000003       0.00000000    
 -0.155000001       0.00000000    
 -0.153999999       0.00000000    
 -0.152999997       0.00000000    
 -0.151999995       0.00000000    
 -0.150999993       0.00000000    
 -0.150000006       0.00000000    
 -0.149000004       3.46016901E-33
 -0.148000002       6.01256721E-32
 -0.147000000       5.15207842E-31
 -0.145999998       2.83355659E-30
 -0.144999996       1.07221372E-29
 -0.143999994       2.60335624E-29
 -0.143000007       1.55915148E-29
 -0.142000005      -2.15474583E-28
 -0.141000003      -1.35778466E-27
 -0.140000001      -5.22232737E-27
 -0.138999999      -1.53956421E-26
 -0.137999997      -3.66432701E-26
 -0.136999995      -6.98501141E-26
 -0.136000007      -9.71141577E-26
 -0.135000005      -5.19559138E-26
 -0.134000003       2.21737756E-25
 -0.133000001       9.93786951E-25
 -0.131999999       2.58234623E-24
 -0.130999997       5.07573025E-24
 -0.129999995       7.70635773E-24
 -0.128999993       7.85703963E-24
 -0.128000006       3.20694206E-26
 -0.127000004      -2.42279552E-23
 -0.126000002      -7.37035457E-23
 -0.125000000      -1.49876870E-22
 -0.123999998      -2.32911902E-22
 -0.123000003      -2.63147060E-22
 -0.122000001      -1.26691566E-22
 -0.120999999       3.37029298E-22
 -0.119999997       1.27993416E-21
 -0.119000003       2.71737899E-21
 -0.118000001       4.32386734E-21
 -0.116999999       5.19886892E-21
 -0.115999997       3.72868261E-21
 -0.115000002      -2.24180123E-21
 -0.114000000      -1.46668041E-20
 -0.112999998      -3.37971846E-20
 -0.112000003      -5.59990806E-20
 -0.111000001      -7.14871328E-20
 -0.109999999      -6.32526209E-20
 -0.108999997      -9.09115195E-21
 -0.108000003       1.11235100E-19
 -0.107000001       3.02578170E-19
 -0.105999999       5.36023997E-19
 -0.104999997       7.30806627E-19
 -0.104000002       7.46489712E-19
 -0.103000000       3.99001839E-19
 -0.101999998      -4.86246594E-19
 -0.101000004      -1.97840944E-18
 -0.100000001      -3.91330586E-18
  -9.89999995E-02  -5.76933041E-18
  -9.79999974E-02  -6.61020872E-18
  -9.70000029E-02  -5.17596191E-18
  -9.60000008E-02  -1.97201280E-19
  -9.49999988E-02   9.03820137E-18
  -9.39999968E-02   2.19306128E-17
  -9.30000022E-02   3.58229656E-17
  -9.20000002E-02   4.55985563E-17
  -9.09999982E-02   4.40432483E-17
  -9.00000036E-02   2.33549781E-17
  -8.90000015E-02  -2.20447653E-17
  -8.79999995E-02  -9.16867968E-17
  -8.69999975E-02  -1.75115989E-16
  -8.60000029E-02  -2.49360915E-16
  -8.50000009E-02  -2.79722916E-16
  -8.39999989E-02  -2.25651271E-16
  -8.29999968E-02  -5.25371888E-17
  -8.20000023E-02   2.51551871E-16
  -8.10000002E-02   6.57648398E-16
  -7.99999982E-02   1.08216474E-15
  -7.90000036E-02   1.38534187E-15
  -7.80000016E-02   1.38923494E-15
  -7.69999996E-02   9.19401536E-16
  -7.59999976E-02  -1.31946901E-16
  -7.50000030E-02  -1.73245449E-15
  -7.40000010E-02  -3.64627948E-15
  -7.29999989E-02  -5.40807667E-15
  -7.19999969E-02  -6.36183916E-15
  -7.10000023E-02  -5.78304164E-15
  -7.00000003E-02  -3.08281474E-15
  -6.89999983E-02   1.93541798E-15
  -6.80000037E-02   8.82741823E-15
  -6.70000017E-02   1.63526199E-14
  -6.59999996E-02   2.25031158E-14
  -6.49999976E-02   2.47878652E-14
  -6.40000030E-02   2.07904017E-14
  -6.30000010E-02   8.93857606E-15
  -6.19999990E-02  -1.06668977E-14
  -6.10000007E-02  -3.55972643E-14
  -5.99999987E-02  -6.08820584E-14
  -5.90000004E-02  -7.94707927E-14
  -5.79999983E-02  -8.34844482E-14
  -5.70000000E-02  -6.61740966E-14
  -5.60000017E-02  -2.42623880E-14
  -5.49999997E-02   3.98825667E-14
  -5.40000014E-02   1.16928684E-13
  -5.29999994E-02   1.90782448E-13
  -5.20000011E-02   2.40752486E-13
  -5.09999990E-02   2.45688669E-13
  -5.00000007E-02   1.89551418E-13
  -4.89999987E-02   6.72962188E-14
  -4.80000004E-02  -1.10458124E-13
  -4.69999984E-02  -3.15607620E-13
  -4.60000001E-02  -5.04883516E-13
  -4.50000018E-02  -6.26822325E-13
  -4.39999998E-02  -6.32754103E-13
  -4.30000015E-02  -4.89925808E-13
  -4.19999994E-02  -1.93827091E-13
  -4.10000011E-02   2.23708774E-13
  -3.99999991E-02   6.93738361E-13
  -3.90000008E-02   1.11864912E-12
  -3.79999988E-02   1.38966789E-12
  -3.70000005E-02   1.41089094E-12
  -3.59999985E-02   1.12505795E-12
  -3.50000001E-02   5.34891521E-13
  -3.40000018E-02  -2.86222597E-13
  -3.29999998E-02  -1.19884387E-12
  -3.20000015E-02  -2.01890479E-12
  -3.09999995E-02  -2.55344552E-12
  -2.99999993E-02  -2.64407376E-12
  -2.89999992E-02  -2.20856645E-12
  -2.80000009E-02  -1.27005112E-12
  -2.70000007E-02   3.51534868E-14
  -2.60000005E-02   1.47575268E-12
  -2.50000004E-02   2.76843847E-12
  -2.40000002E-02   3.63780165E-12
  -2.30000000E-02   3.88011541E-12
  -2.19999999E-02   3.41541270E-12
  -2.09999997E-02   2.31360742E-12
  -1.99999996E-02   7.85667538E-13
  -1.89999994E-02  -8.60879564E-13
  -1.79999992E-02  -2.29344278E-12
  -1.70000009E-02  -3.23611906E-12
  -1.60000008E-02  -3.54055999E-12
  -1.49999997E-02  -3.22573955E-12
  -1.40000004E-02  -2.47304694E-12
  -1.30000003E-02  -1.57428085E-12
  -1.20000001E-02  -8.43244420E-13
  -1.09999999E-02  -5.13275620E-13
  -9.99999978E-03  -6.49755098E-13
  -8.99999961E-03  -1.10590974E-12
  -8.00000038E-03  -1.54133498E-12
  -7.00000022E-03  -1.50704221E-12
  -6.00000005E-03  -5.81995335E-13
  -4.99999989E-03   1.47111533E-12
  -4.00000019E-03   4.57369819E-12
  -3.00000003E-03   8.26563817E-12
  -2.00000009E-03   1.17373871E-11
  -1.00000005E-03   1.39688539E-11
   0.00000000       1.39564055E-11
   1.00000005E-03   1.09826141E-11
   2.00000009E-03   4.86496173E-12
   3.00000003E-03  -3.88435074E-12
   4.00000019E-03  -1.40423272E-11
   4.99999989E-03  -2.38287515E-11
   6.00000005E-03  -3.12161651E-11
   7.00000022E-03  -3.43424351E-11
   8.00000038E-03  -3.19403913E-11
   8.99999961E-03  -2.36851077E-11
   9.99999978E-03  -1.03687597E-11
   1.09999999E-02   6.15455907E-12
   1.20000001E-02   2.32618976E-11
   1.30000003E-02   3.80441997E-11
   1.40000004E-02   4.78815772E-11
   1.49999997E-02   5.09848830E-11
   1.60000008E-02   4.67771898E-11
   1.70000009E-02   3.60195034E-11
   1.79999992E-02   2.06415874E-11
   1.89999994E-02   3.30849367E-12
   1.99999996E-02  -1.31802234E-11
   2.09999997E-02  -2.65155224E-11
   2.19999999E-02  -3.53725139E-11
   2.30000000E-02  -3.96433615E-11
   2.40000002E-02  -4.03412512E-11
   2.50000004E-02  -3.91897348E-11
   2.60000005E-02  -3.79961826E-11
   2.70000007E-02  -3.79725175E-11
   2.80000009E-02  -3.91929510E-11
   2.89999992E-02  -4.03575819E-11
   2.99999993E-02  -3.89639813E-11
   3.09999995E-02  -3.18900496E-11
   3.20000015E-02  -1.62830166E-11
   3.29999998E-02   9.44189778E-12
   3.40000018E-02   4.47400242E-11
   3.50000001E-02   8.64534486E-11
   3.59999985E-02   1.28879921E-10
   3.70000005E-02   1.64456476E-10
   3.79999988E-02   1.84983348E-10
   3.90000008E-02   1.83183690E-10
   3.99999991E-02   1.54302376E-10
   4.10000011E-02   9.74148748E-11
   4.19999994E-02   1.61541926E-11
   4.30000015E-02  -8.13339951E-11
   4.39999998E-02  -1.83253607E-10
   4.50000018E-02  -2.75725054E-10
   4.60000001E-02  -3.44806683E-10
   4.69999984E-02  -3.78631265E-10
   4.80000004E-02  -3.69296593E-10
   4.89999987E-02  -3.14195364E-10
   5.00000007E-02  -2.16574356E-10
   5.09999990E-02  -8.52505219E-11
   5.20000011E-02   6.64455435E-11
   5.29999994E-02   2.22309518E-10
   5.40000014E-02   3.65221853E-10
   5.49999997E-02   4.79138451E-10
   5.60000017E-02   5.50855306E-10
   5.70000000E-02   5.71355185E-10
   5.79999983E-02   5.36628797E-10
   5.90000004E-02   4.47946985E-10
   5.99999987E-02   3.11626974E-10
   6.10000007E-02   1.38380737E-10
   6.19999990E-02  -5.76512206E-11
   6.30000010E-02  -2.60076211E-10
   6.40000030E-02  -4.51544468E-10
   6.49999976E-02  -6.15082874E-10
   6.59999996E-02  -7.35396077E-10
   6.70000017E-02  -8.00064404E-10
   6.80000037E-02  -8.00568112E-10
   6.89999983E-02  -7.33068217E-10
   7.00000003E-02  -5.98882555E-10
   7.10000023E-02  -4.04616063E-10
   7.19999969E-02  -1.61929595E-10
   7.29999989E-02   1.13037177E-10
   7.40000010E-02   4.00549538E-10
   7.50000030E-02   6.78414713E-10
   7.59999976E-02   9.23319865E-10
   7.69999996E-02   1.11233101E-09
   7.80000016E-02   1.22452770E-09
   7.90000036E-02   1.24275135E-09
   7.99999982E-02   1.15542842E-09
   8.10000002E-02   9.58380153E-10
   8.20000023E-02   6.56457833E-10
   8.29999968E-02   2.64755662E-10
   8.39999989E-02  -1.90914604E-10
   8.50000009E-02  -6.74628686E-10
   8.60000029E-02  -1.14232135E-09
   8.69999975E-02  -1.54526558E-09
   8.79999995E-02  -1.83496263E-09
   8.90000015E-02  -1.96905026E-09
   9.00000036E-02  -1.91753435E-09
   9.09999982E-02  -1.66840775E-09
   9.20000002E-02  -1.23161747E-09
   9.30000022E-02  -6.40431597E-10
   9.39999968E-02   5.04436527E-11
   9.49999988E-02   7.70157604E-10
   9.60000008E-02   1.43997347E-09
   9.70000029E-02   1.98344097E-09
   9.79999974E-02   2.33695063E-09
   9.89999995E-02   2.45890996E-09
  0.100000001       2.33588171E-09
  0.101000004       1.98446992E-09
  0.101999998       1.44847745E-09
  0.103000000       7.91743948E-10
  0.104000002       8.79351036E-11
  0.104999997      -5.90798910E-10
  0.105999999      -1.18411103E-09
  0.107000001      -1.65069725E-09
  0.108000003      -1.97113192E-09
  0.108999997      -2.14590745E-09
  0.109999999      -2.18937557E-09
  0.111000001      -2.12125073E-09
  0.112000003      -1.95795025E-09
  0.112999998      -1.70614012E-09
  0.114000000      -1.36037681E-09
  0.115000002      -9.05779396E-10
  0.115999997      -3.25412197E-10
  0.116999999       3.89188154E-10
  0.118000001       1.22686761E-09
  0.119000003       2.14802820E-09
  0.119999997       3.08079362E-09
  0.120999999       3.92391453E-09
  0.122000001       4.55675409E-09
  0.123000003       4.85508833E-09
  0.123999998       4.71003769E-09
  0.125000000       4.04651646E-09
  0.126000002       2.83742962E-09
  0.127000004       1.11049669E-09
  0.128000006      -1.05401599E-09
  0.128999993      -3.53455221E-09
  0.129999995      -6.18651752E-09
  0.130999997      -8.86401441E-09
  0.131999999      -1.14407772E-08
  0.133000001      -1.38261784E-08
  0.134000003      -1.59732636E-08
  0.135000005      -1.78776336E-08
  0.136000007      -1.95681089E-08
  0.136999995      -2.10921360E-08
  0.137999997      -2.25002026E-08
  0.138999999      -2.38339393E-08
  0.140000001      -2.51217287E-08
  0.141000003      -2.63838871E-08
  0.142000005      -2.76470207E-08
  0.143000007      -2.89645783E-08
  0.143999994      -3.04385956E-08
  0.144999996      -3.22366240E-08
  0.145999998      -3.45981341E-08
  0.147000000      -3.78265028E-08
  0.148000002      -4.22655440E-08
  0.149000004      -4.82629154E-08
  0.150000006      -5.61261082E-08
  0.150999993      -6.60788899E-08
  0.151999995      -7.82271314E-08
  0.152999997      -9.25417893E-08
  0.153999999      -1.08864320E-07
  0.155000001      -1.26935745E-07
  0.156000003      -1.46446254E-07
  0.157000005      -1.67098108E-07
  0.158000007      -1.88671734E-07
  0.158999994      -2.11084142E-07
  0.159999996      -2.34429578E-07
  0.160999998      -2.58995783E-07
  0.162000000      -2.85253407E-07
  0.163000003      -3.13821403E-07
  0.164000005      -3.45415003E-07
  0.165000007      -3.80786759E-07
  0.165999994      -4.20671654E-07
  0.166999996      -4.65745984E-07
  0.167999998      -5.16607258E-07
  0.169000000      -5.73776731E-07
  0.170000002      -6.37722735E-07
  0.171000004      -7.08897971E-07
  0.172000006      -7.87781914E-07
  0.172999993      -8.74918044E-07
  0.173999995      -9.70938345E-07
  0.174999997      -1.07657092E-06
  0.175999999      -1.19262904E-06
  0.177000001      -1.31998797E-06
  0.178000003      -1.45955482E-06
  0.179000005      -1.61224273E-06
  0.180000007      -1.77895708E-06
  0.180999994      -1.96059955E-06
  0.181999996      -2.15809314E-06
  0.182999998      -2.37242375E-06
  0.184000000      -2.60469233E-06
  0.185000002      -2.85616738E-06
  0.186000004      -3.12832685E-06
  0.187000006      -3.42287990E-06
  0.187999994      -3.74176557E-06
  0.188999996      -4.08712458E-06
  0.189999998      -4.46125250E-06
  0.191000000      -4.86654335E-06
  0.192000002      -5.30543093E-06
  0.193000004      -5.78034724E-06
  0.194000006      -6.29369970E-06
  0.194999993      -6.84787483E-06
  0.195999995      -7.44526915E-06
  0.196999997      -8.08833465E-06
  0.197999999      -8.77964067E-06
  0.199000001      -9.52191749E-06
  0.200000003      -1.03181019E-05
  0.201000005      -1.11713462E-05
  0.202000007      -1.20850045E-05
  0.202999994      -1.30625986E-05
  0.203999996      -1.41077608E-05
  0.204999998      -1.52241782E-05
  0.206000000      -1.64155426E-05
  0.207000002      -1.76855119E-05
  0.208000004      -1.90377104E-05
  0.209000006      -2.04757507E-05
  0.209999993      -2.20032762E-05
  0.210999995      -2.36240176E-05
  0.211999997      -2.53418621E-05
  0.213000000      -2.71608915E-05
  0.214000002      -2.90854223E-05
  0.215000004      -3.11199910E-05
  0.216000006      -3.32693307E-05
  0.216999993      -3.55382908E-05
  0.217999995      -3.79317717E-05
  0.218999997      -4.04546263E-05
  0.219999999      -4.31115623E-05
  0.221000001      -4.59070725E-05
  0.222000003      -4.88454025E-05
  0.223000005      -5.19305213E-05
  0.224000007      -5.51661251E-05
  0.224999994      -5.85556809E-05
  0.225999996      -6.21024592E-05
  0.226999998      -6.58095814E-05
  0.228000000      -6.96800562E-05
  0.229000002      -7.37167866E-05
  0.230000004      -7.79225666E-05
  0.231000006      -8.23000591E-05
  0.231999993      -8.68517309E-05
  0.232999995      -9.15798009E-05
  0.233999997      -9.64861611E-05
  0.234999999      -1.01572332E-04
  0.236000001      -1.06839383E-04
  0.237000003      -1.12287926E-04
  0.238000005      -1.17918091E-04
  0.238999993      -1.23729522E-04
  0.239999995      -1.29721433E-04
  0.240999997      -1.35892624E-04
  0.241999999      -1.42241493E-04
  0.243000001      -1.48766077E-04
  0.244000003      -1.55464004E-04
  0.245000005      -1.62332508E-04
  0.246000007      -1.69368301E-04
  0.246999994      -1.76567584E-04
  0.247999996      -1.83925891E-04
  0.248999998      -1.91438114E-04
  0.250000000      -1.99098329E-04
  0.250999987      -2.06899873E-04
  0.252000004      -2.14835323E-04
  0.252999991      -2.22896560E-04
  0.254000008      -2.31074795E-04
  0.254999995      -2.39360743E-04
  0.256000012      -2.47744640E-04
  0.256999999      -2.56216386E-04
  0.257999986      -2.64765491E-04
  0.259000003      -2.73381214E-04
  0.259999990      -2.82052439E-04
  0.261000007      -2.90767639E-04
  0.261999995      -2.99514795E-04
  0.263000011      -3.08281451E-04
  0.263999999      -3.17054539E-04
  0.264999986      -3.25820525E-04
  0.266000003      -3.34565353E-04
  0.266999990      -3.43274674E-04
  0.268000007      -3.51933966E-04
  0.268999994      -3.60528589E-04
  0.270000011      -3.69043933E-04
  0.270999998      -3.77465534E-04
  0.272000015      -3.85779043E-04
  0.273000002      -3.93970287E-04
  0.273999989      -4.02025151E-04
  0.275000006      -4.09929489E-04
  0.275999993      -4.17669158E-04
  0.277000010      -4.25229868E-04
  0.277999997      -4.32597328E-04
  0.279000014      -4.39757190E-04
  0.280000001      -4.46695223E-04
  0.280999988      -4.53397399E-04
  0.282000005      -4.59850155E-04
  0.282999992      -4.66040336E-04
  0.284000009      -4.71955573E-04
  0.284999996      -4.77584108E-04
  0.286000013      -4.82914969E-04
  0.287000000      -4.87937999E-04
  0.287999988      -4.92643681E-04
  0.289000005      -4.97022993E-04
  0.289999992      -5.01067727E-04
  0.291000009      -5.04770083E-04
  0.291999996      -5.08122786E-04
  0.293000013      -5.11119200E-04
  0.294000000      -5.13753388E-04
  0.294999987      -5.16020169E-04
  0.296000004      -5.17915178E-04
  0.296999991      -5.19435096E-04
  0.298000008      -5.20577305E-04
  0.298999995      -5.21340233E-04
  0.300000012      -5.21723065E-04
  0.300999999      -5.21725509E-04
  0.301999986      -5.21347858E-04
  0.303000003      -5.20590809E-04
  0.303999990      -5.19455469E-04
  0.305000007      -5.17943234E-04
  0.305999994      -5.16055909E-04
  0.307000011      -5.13795705E-04
  0.307999998      -5.11165534E-04
  0.308999985      -5.08168829E-04
  0.310000002      -5.04809781E-04
  0.310999990      -5.01093338E-04
  0.312000006      -4.97025030E-04
  0.312999994      -4.92611085E-04
  0.314000010      -4.87858168E-04
  0.314999998      -4.82773350E-04
  0.316000015      -4.77363879E-04
  0.317000002      -4.71637119E-04
  0.317999989      -4.65600460E-04
  0.319000006      -4.59261297E-04
  0.319999993      -4.52626991E-04
  0.321000010      -4.45704849E-04
  0.321999997      -4.38502058E-04
  0.323000014      -4.31025896E-04
  0.324000001      -4.23283607E-04
  0.324999988      -4.15282382E-04
  0.326000005      -4.07029525E-04
  0.326999992      -3.98532371E-04
  0.328000009      -3.89798195E-04
  0.328999996      -3.80834274E-04
  0.330000013      -3.71647737E-04
  0.331000000      -3.62245541E-04
  0.331999987      -3.52634379E-04
  0.333000004      -3.42820596E-04
  0.333999991      -3.32810188E-04
  0.335000008      -3.22608714E-04
  0.335999995      -3.12221353E-04
  0.337000012      -3.01652966E-04
  0.338000000      -2.90908210E-04
  0.338999987      -2.79991655E-04
  0.340000004      -2.68907810E-04
  0.340999991      -2.57661333E-04
  0.342000008      -2.46257056E-04
  0.342999995      -2.34699939E-04
  0.344000012      -2.22995062E-04
  0.344999999      -2.11147519E-04
  0.345999986      -1.99162227E-04
  0.347000003      -1.87043901E-04
  0.347999990      -1.74796907E-04
  0.349000007      -1.62425233E-04
  0.349999994      -1.49932486E-04
  0.351000011      -1.37322058E-04
  0.351999998      -1.24597194E-04
  0.352999985      -1.11761241E-04
  0.354000002      -9.88177344E-05
  0.354999989      -8.57705672E-05
  0.356000006      -7.26240396E-05
  0.356999993      -5.93829027E-05
  0.358000010      -4.60523006E-05
  0.358999997      -3.26377049E-05
  0.360000014      -1.91448016E-05
  0.361000001      -5.57942622E-06
  0.361999989       8.05248146E-06
  0.363000005       2.17449269E-05
  0.363999993       3.54918302E-05
  0.365000010       4.92869804E-05
  0.365999997       6.31239236E-05
  0.367000014       7.69959370E-05
  0.368000001       9.08959191E-05
  0.368999988       1.04816339E-04
  0.370000005       1.18749238E-04
  0.370999992       1.32686240E-04
  0.372000009       1.46618564E-04
  0.372999996       1.60537093E-04
  0.374000013       1.74432353E-04
  0.375000000       1.88294580E-04
  0.375999987       2.02113704E-04
  0.377000004       2.15879336E-04
  0.377999991       2.29580764E-04
  0.379000008       2.43206989E-04
  0.379999995       2.56746716E-04
  0.381000012       2.70188437E-04
  0.381999999       2.83520378E-04
  0.382999986       2.96730548E-04
  0.384000003       3.09806725E-04
  0.384999990       3.22736450E-04
  0.386000007       3.35506920E-04
  0.386999995       3.48104979E-04
  0.388000011       3.60516948E-04
  0.388999999       3.72728478E-04
  0.389999986       3.84724670E-04
  0.391000003       3.96489893E-04
  0.391999990       4.08007851E-04
  0.393000007       4.19261574E-04
  0.393999994       4.30233573E-04
  0.395000011       4.40905947E-04
  0.395999998       4.51260363E-04
  0.397000015       4.61278163E-04
  0.398000002       4.70940315E-04
  0.398999989       4.80227493E-04
  0.400000006       4.89119790E-04
  0.400999993       4.97596862E-04
  0.402000010       5.05637494E-04
  0.402999997       5.13219566E-04
  0.404000014       5.20319969E-04
  0.405000001       5.26914315E-04
  0.405999988       5.32977167E-04
  0.407000005       5.38481865E-04
  0.407999992       5.43400354E-04
  0.409000009       5.47703588E-04
  0.409999996       5.51361241E-04
  0.411000013       5.54341881E-04
  0.412000000       5.56612853E-04
  0.412999988       5.58140280E-04
  0.414000005       5.58888831E-04
  0.414999992       5.58821775E-04
  0.416000009       5.57900930E-04
  0.416999996       5.56086539E-04
  0.418000013       5.53337391E-04
  0.419000000       5.49610704E-04
  0.419999987       5.44862414E-04
  0.421000004       5.39046945E-04
  0.421999991       5.32117672E-04
  0.423000008       5.24026458E-04
  0.423999995       5.14724059E-04
  0.425000012       5.04159776E-04
  0.425999999       4.92281630E-04
  0.426999986       4.79036156E-04
  0.428000003       4.64368612E-04
  0.428999990       4.48222796E-04
  0.430000007       4.30541462E-04
  0.430999994       4.11266286E-04
  0.432000011       3.90338275E-04
  0.432999998       3.67697707E-04
  0.433999985       3.43284657E-04
  0.435000002       3.17038997E-04
  0.435999990       2.88900512E-04
  0.437000006       2.58809217E-04
  0.437999994       2.26705291E-04
  0.439000010       1.92529318E-04
  0.439999998       1.56222392E-04
  0.441000015       1.17726384E-04
  0.442000002       7.69842009E-05
  0.442999989       3.39401231E-05
  0.444000006      -1.14598024E-05
  0.444999993      -5.92673387E-05
  0.446000010      -1.09531662E-04
  0.446999997      -1.62298966E-04
  0.448000014      -2.17612091E-04
  0.449000001      -2.75510218E-04
  0.449999988      -3.36028636E-04
  0.451000005      -3.99198354E-04
  0.451999992      -4.65046003E-04
  0.453000009      -5.33593353E-04
  0.453999996      -6.04857225E-04
  0.455000013      -6.78848941E-04
  0.456000000      -7.55574089E-04
  0.456999987      -8.35032202E-04
  0.458000004      -9.17216297E-04
  0.458999991      -1.00211252E-03
  0.460000008      -1.08970003E-03
  0.460999995      -1.17995078E-03
  0.462000012      -1.27282878E-03
  0.463000000      -1.36829051E-03
  0.463999987      -1.46628427E-03
  0.465000004      -1.56675000E-03
  0.465999991      -1.66961947E-03
  0.467000008      -1.77481561E-03
  0.467999995      -1.88225252E-03
  0.469000012      -1.99183566E-03
  0.469999999      -2.10346165E-03
  0.470999986      -2.21701828E-03
  0.472000003      -2.33238423E-03
  0.472999990      -2.44942983E-03
  0.474000007      -2.56801653E-03
  0.474999994      -2.68799788E-03
  0.476000011      -2.80921953E-03
  0.476999998      -2.93151895E-03
  0.477999985      -3.05472594E-03
  0.479000002      -3.17866309E-03
  0.479999989      -3.30314622E-03
  0.481000006      -3.42798419E-03
  0.481999993      -3.55298002E-03
  0.483000010      -3.67793092E-03
  0.483999997      -3.80262919E-03
  0.485000014      -3.92686250E-03
  0.486000001      -4.05041501E-03
  0.486999989      -4.17306786E-03
  0.488000005      -4.29459941E-03
  0.488999993      -4.41478658E-03
  0.490000010      -4.53340542E-03
  0.490999997      -4.65023099E-03
  0.492000014      -4.76503931E-03
  0.493000001      -4.87760641E-03
  0.493999988      -4.98771109E-03
  0.495000005      -5.09513449E-03
  0.495999992      -5.19966008E-03
  0.497000009      -5.30107599E-03
  0.497999996      -5.39917592E-03
  0.499000013      -5.49375825E-03
  0.500000000      -5.58462739E-03
  0.500999987      -5.67159615E-03
  0.501999974      -5.75448433E-03
  0.503000021      -5.83312102E-03
  0.504000008      -5.90734370E-03
  0.504999995      -5.97699964E-03
  0.505999982      -6.04194729E-03
  0.507000029      -6.10205578E-03
  0.508000016      -6.15720497E-03
  0.509000003      -6.20728778E-03
  0.509999990      -6.25220919E-03
  0.510999978      -6.29188586E-03
  0.512000024      -6.32624980E-03
  0.513000011      -6.35524467E-03
  0.513999999      -6.37882855E-03
  0.514999986      -6.39697397E-03
  0.515999973      -6.40966557E-03
  0.517000020      -6.41690241E-03
  0.518000007      -6.41869754E-03
  0.518999994      -6.41507609E-03
  0.519999981      -6.40607812E-03
  0.521000028      -6.39175577E-03
  0.522000015      -6.37217425E-03
  0.523000002      -6.34741271E-03
  0.523999989      -6.31756196E-03
  0.524999976      -6.28272584E-03
  0.526000023      -6.24301936E-03
  0.527000010      -6.19856967E-03
  0.527999997      -6.14951365E-03
  0.528999984      -6.09599939E-03
  0.529999971      -6.03818288E-03
  0.531000018      -5.97622897E-03
  0.532000005      -5.91031043E-03
  0.532999992      -5.84060792E-03
  0.533999979      -5.76730864E-03
  0.535000026      -5.69060491E-03
  0.536000013      -5.61069511E-03
  0.537000000      -5.52778365E-03
  0.537999988      -5.44207776E-03
  0.538999975      -5.35378931E-03
  0.540000021      -5.26313111E-03
  0.541000009      -5.17031876E-03
  0.541999996      -5.07556926E-03
  0.542999983      -4.97909868E-03
  0.544000030      -4.88112215E-03
  0.545000017      -4.78185294E-03
  0.546000004      -4.68150247E-03
  0.546999991      -4.58027935E-03
  0.547999978      -4.47838940E-03
  0.549000025      -4.37603379E-03
  0.550000012      -4.27340996E-03
  0.550999999      -4.17071162E-03
  0.551999986      -4.06812597E-03
  0.552999973      -3.96583555E-03
  0.554000020      -3.86401662E-03
  0.555000007      -3.76283890E-03
  0.555999994      -3.66246444E-03
  0.556999981      -3.56304832E-03
  0.558000028      -3.46473791E-03
  0.559000015      -3.36767221E-03
  0.560000002      -3.27198231E-03
  0.560999990      -3.17779137E-03
  0.561999977      -3.08521441E-03
  0.563000023      -2.99435854E-03
  0.564000010      -2.90532364E-03
  0.564999998      -2.81820097E-03
  0.565999985      -2.73307459E-03
  0.566999972      -2.65002064E-03
  0.568000019      -2.56910734E-03
  0.569000006      -2.49039405E-03
  0.569999993      -2.41393317E-03
  0.570999980      -2.33976846E-03
  0.572000027      -2.26793578E-03
  0.573000014      -2.19846331E-03
  0.574000001      -2.13137222E-03
  0.574999988      -2.06667650E-03
  0.575999975      -2.00438360E-03
  0.577000022      -1.94449525E-03
  0.578000009      -1.88700692E-03
  0.578999996      -1.83190848E-03
  0.579999983      -1.77918491E-03
  0.580999970      -1.72881607E-03
  0.582000017      -1.68077729E-03
  0.583000004      -1.63503957E-03
  0.583999991      -1.59157009E-03
  0.584999979      -1.55033229E-03
  0.586000025      -1.51128613E-03
  0.587000012      -1.47438853E-03
  0.588000000      -1.43959338E-03
  0.588999987      -1.40685181E-03
  0.589999974      -1.37611257E-03
  0.591000021      -1.34732190E-03
  0.592000008      -1.32042426E-03
  0.592999995      -1.29536237E-03
  0.593999982      -1.27207744E-03
  0.595000029      -1.25050987E-03
  0.596000016      -1.23059901E-03
  0.597000003      -1.21228397E-03
  0.597999990      -1.19550317E-03
  0.598999977      -1.18019525E-03
  0.600000024      -1.16629852E-03
  0.601000011      -1.15375163E-03
  0.601999998      -1.14249287E-03
  0.602999985      -1.13246136E-03
  0.603999972      -1.12359633E-03
  0.605000019      -1.11583807E-03
  0.606000006      -1.10912754E-03
  0.606999993      -1.10340666E-03
  0.607999980      -1.09861873E-03
  0.609000027      -1.09470810E-03
  0.610000014      -1.09162088E-03
  0.611000001      -1.08930399E-03
  0.611999989      -1.08770607E-03
  0.612999976      -1.08677708E-03
  0.614000022      -1.08646858E-03
  0.615000010      -1.08673354E-03
  0.615999997      -1.08752656E-03
  0.616999984      -1.08880387E-03
  0.617999971      -1.09052320E-03
  0.619000018      -1.09264371E-03
  0.620000005      -1.09512580E-03
  0.620999992      -1.09793129E-03
  0.621999979      -1.10102305E-03
  0.623000026      -1.10436557E-03
  0.624000013      -1.10792485E-03
  0.625000000      -1.11166853E-03
  0.625999987      -1.11556589E-03
  0.626999974      -1.11958827E-03
  0.628000021      -1.12370879E-03
  0.629000008      -1.12790265E-03
  0.629999995      -1.13214680E-03
  0.630999982      -1.13641971E-03
  0.632000029      -1.14070124E-03
  0.633000016      -1.14497228E-03
  0.634000003      -1.14921515E-03
  0.634999990      -1.15341309E-03
  0.635999978      -1.15755049E-03
  0.637000024      -1.16161292E-03
  0.638000011      -1.16558687E-03
  0.638999999      -1.16946024E-03
  0.639999986      -1.17322197E-03
  0.640999973      -1.17686240E-03
  0.642000020      -1.18037302E-03
  0.643000007      -1.18374650E-03
  0.643999994      -1.18697656E-03
  0.644999981      -1.19005830E-03
  0.646000028      -1.19298778E-03
  0.647000015      -1.19576207E-03
  0.648000002      -1.19837897E-03
  0.648999989      -1.20083720E-03
  0.649999976      -1.20313594E-03
  0.651000023      -1.20527449E-03
  0.652000010      -1.20725262E-03
  0.652999997      -1.20907009E-03
  0.653999984      -1.21072715E-03
  0.654999971      -1.21222402E-03
  0.656000018      -1.21356186E-03
  0.657000005      -1.21474231E-03
  0.657999992      -1.21576781E-03
  0.658999979      -1.21664174E-03
  0.660000026      -1.21736806E-03
  0.661000013      -1.21795153E-03
  0.662000000      -1.21839717E-03
  0.662999988      -1.21871009E-03
  0.663999975      -1.21889543E-03
  0.665000021      -1.21895818E-03
  0.666000009      -1.21890311E-03
  0.666999996      -1.21873466E-03
  0.667999983      -1.21845724E-03
  0.669000030      -1.21807482E-03
  0.670000017      -1.21759158E-03
  0.671000004      -1.21701183E-03
  0.671999991      -1.21633965E-03
  0.672999978      -1.21557957E-03
  0.674000025      -1.21473591E-03
  0.675000012      -1.21381308E-03
  0.675999999      -1.21281552E-03
  0.676999986      -1.21174741E-03
  0.677999973      -1.21061306E-03
  0.679000020      -1.20941654E-03
  0.680000007      -1.20816147E-03
  0.680999994      -1.20685168E-03
  0.681999981      -1.20549090E-03
  0.683000028      -1.20408263E-03
  0.684000015      -1.20263069E-03
  0.685000002      -1.20113895E-03
  0.685999990      -1.19961111E-03
  0.686999977      -1.19805126E-03
  0.688000023      -1.19646313E-03
  0.689000010      -1.19485031E-03
  0.689999998      -1.19321607E-03
  0.690999985      -1.19156344E-03
  0.691999972      -1.18989474E-03
  0.693000019      -1.18821231E-03
  0.694000006      -1.18651800E-03
  0.694999993      -1.18481368E-03
  0.695999980      -1.18310121E-03