 -0.159999996       0.00000000    
 -0.158999994       0.00000000    
 -0.158000007       0.00000000    
 -0.157000005       0.00000000    
 -0.156000003       0.00000000    
 -0.155000001       0.00000000    
 -0.153999999       0.00000000    
 -0.152999997       0.00000000    
 -0.151999995       0.00000000    
 -0.150999993       0.00000000    
 -0.150000006       0.00000000    
 -0.149000004       1.00197554E-34
 -0.148000002      -3.64493358E-33
 -0.147000000      -8.77948166E-32
 -0.145999998      -8.98080599E-31
 -0.144999996      -5.86792223E-30
 -0.143999994      -2.77649584E-29
 -0.143000007      -9.98158092E-29
 -0.142000005      -2.71847564E-28
 -0.141000003      -5.08911147E-28
 -0.140000001      -2.88287446E-28
 -0.138999999       2.41681521E-27
 -0.137999997       1.28724227E-26
 -0.136999995       4.09943741E-26
 -0.136000007       9.85621859E-26
 -0.135000005       1.83991341E-25
 -0.134000003       2.43478664E-25
 -0.133000001       1.03860700E-25
 -0.131999999      -5.98511481E-25
 -0.130999997      -2.40619970E-24
 -0.129999995      -5.77286123E-24
 -0.128999993      -1.03103284E-23
 -0.128000006      -1.34225077E-23
 -0.127000004      -8.63038679E-24
 -0.126000002       1.52173257E-23
 -0.125000000       7.14357347E-23
 -0.123999998       1.66399139E-22
 -0.123000003       2.81344377E-22
 -0.122000001       3.46906720E-22
 -0.120999999       2.21400944E-22
 -0.119999997      -3.03019397E-22
 -0.119000003      -1.43057747E-21
 -0.118000001      -3.19392085E-21
 -0.116999999      -5.18307171E-21
 -0.115999997      -6.23752787E-21
 -0.115000002      -4.27866159E-21
 -0.114000000       3.42237497E-21
 -0.112999998       1.91950638E-20
 -0.112000003       4.29179171E-20
 -0.111000001       6.91560991E-20
 -0.109999999       8.44122629E-20
 -0.108999997       6.63355489E-20
 -0.108000003      -1.25405145E-20
 -0.107000001      -1.74062065E-19
 -0.105999999      -4.15915589E-19
 -0.104999997      -6.88197261E-19
 -0.104000002      -8.73525888E-19
 -0.103000000      -7.84977496E-19
 -0.101999998      -1.99337357E-19
 -0.101000004       1.06021238E-18
 -0.100000001       2.99155576E-18
  -9.89999995E-02   5.25612730E-18
  -9.79999974E-02   7.05443697E-18
  -9.70000029E-02   7.12305657E-18
  -9.60000008E-02   3.95196291E-18
  -9.49999988E-02  -3.70843804E-18
  -9.39999968E-02  -1.60658923E-17
  -9.30000022E-02  -3.13849563E-17
  -9.20000002E-02  -4.52871459E-17
  -9.09999982E-02  -5.07109593E-17
  -9.00000036E-02  -3.90147578E-17
  -8.90000015E-02  -2.53228523E-18
  -8.79999995E-02   6.15317688E-17
  -8.69999975E-02   1.46624632E-16
  -8.60000029E-02   2.33275362E-16
  -8.50000009E-02   2.88476287E-16
  -8.39999989E-02   2.70104937E-16
  -8.29999968E-02   1.37689904E-16
  -8.20000023E-02  -1.30944875E-16
  -8.10000002E-02  -5.20215555E-16
  -7.99999982E-02  -9.60382473E-16
  -7.90000036E-02  -1.32219524E-15
  -7.80000016E-02  -1.43067242E-15
  -7.69999996E-02  -1.10320991E-15
  -7.59999976E-02  -2.10852163E-16
  -7.50000030E-02   1.24756444E-15
  -7.40000010E-02   3.07853278E-15
  -7.29999989E-02   4.86164555E-15
  -7.19999969E-02   5.98018729E-15
  -7.10000023E-02   5.73379302E-15
  -7.00000003E-02   3.53259029E-15
  -6.89999983E-02  -8.56179050E-16
  -6.80000037E-02  -7.06884189E-15
  -6.70000017E-02  -1.39963623E-14
  -6.59999996E-02  -1.98135914E-14
  -6.49999976E-02  -2.22514708E-14
  -6.40000030E-02  -1.91230071E-14
  -6.30000010E-02  -9.03525979E-15
  -6.19999990E-02   7.86678292E-15
  -6.10000007E-02   2.93468151E-14
  -5.99999987E-02   5.09579019E-14
  -5.90000004E-02   6.65513854E-14
  -5.79999983E-02   6.94795648E-14
  -5.70000000E-02   5.43650174E-14
  -5.60000017E-02   1.90922548E-14
  -5.49999997E-02  -3.35018980E-14
  -5.40000014E-02  -9.48372308E-14
  -5.29999994E-02  -1.51209462E-13
  -5.20000011E-02  -1.86062130E-13
  -5.09999990E-02  -1.83732966E-13
  -5.00000007E-02  -1.34010777E-13
  -4.89999987E-02  -3.64192217E-14
  -4.80000004E-02   9.70648461E-14
  -4.69999984E-02   2.42029649E-13
  -4.60000001E-02   3.65056753E-13
  -4.50000018E-02   4.30415360E-13
  -4.39999998E-02   4.08909939E-13
  -4.30000015E-02   2.86904100E-13
  -4.19999994E-02   7.30634967E-14
  -4.10000011E-02  -1.99507376E-13
  -3.99999991E-02  -4.77223133E-13
  -3.90000008E-02  -6.96124473E-13
  -3.79999988E-02  -7.96458331E-13
  -3.70000005E-02  -7.38488589E-13
  -3.59999985E-02  -5.15387266E-13
  -3.50000001E-02  -1.59199355E-13
  -3.40000018E-02   2.62787350E-13
  -3.29999998E-02   6.61590520E-13
  -3.20000015E-02   9.47506722E-13
  -3.09999995E-02   1.05349627E-12
  -2.99999993E-02   9.54553385E-13
  -2.89999992E-02   6.76941467E-13
  -2.80000009E-02   2.93377871E-13
  -2.70000007E-02  -9.60184487E-14
  -2.60000005E-02  -3.92854125E-13
  -2.50000004E-02  -5.31788751E-13
  -2.40000002E-02  -5.04363749E-13
  -2.30000000E-02  -3.66572631E-13
  -2.19999999E-02  -2.25266759E-13
  -2.09999997E-02  -2.04520239E-13
  -1.99999996E-02  -3.99750383E-13
  -1.89999994E-02  -8.32711829E-13
  -1.79999992E-02  -1.42256140E-12
  -1.70000009E-02  -1.98583381E-12
  -1.60000008E-02  -2.27136604E-12
  -1.49999997E-02  -2.02632659E-12
  -1.40000004E-02  -1.07907888E-12
  -1.30000003E-02   5.83260545E-13
  -1.20000001E-02   2.76720574E-12
  -1.09999999E-02   5.07537979E-12
  -9.99999978E-03   6.96801471E-12
  -8.99999961E-03   7.87675394E-12
  -8.00000038E-03   7.34791741E-12
  -7.00000022E-03   5.18046543E-12
  -6.00000005E-03   1.52025669E-12
  -4.99999989E-03  -3.12105008E-12
  -4.00000019E-03  -7.93748053E-12
  -3.00000003E-03  -1.19827525E-11
  -2.00000009E-03  -1.43756031E-11
  -1.00000005E-03  -1.45079955E-11
   0.00000000      -1.22023138E-11
   1.00000005E-03  -7.77271650E-12
   2.00000009E-03  -1.96826626E-12
   3.00000003E-03   4.19380242E-12
   4.00000019E-03   9.66539088E-12
   4.99999989E-03   1.36138635E-11
   6.00000005E-03   1.56095293E-11
   7.00000022E-03   1.56992370E-11
   8.00000038E-03   1.43409954E-11
   8.99999961E-03   1.22143519E-11
   9.99999978E-03   9.95995647E-12
   1.09999999E-02   7.92786149E-12
   1.20000001E-02   6.01855024E-12
   1.30000003E-02   3.68001853E-12
   1.40000004E-02   8.20800676E-14
   1.49999997E-02  -5.56432678E-12
   1.60000008E-02  -1.36249987E-11
   1.70000009E-02  -2.37110574E-11
   1.79999992E-02  -3.45133436E-11
   1.89999994E-02  -4.38856278E-11
   1.99999996E-02  -4.91993321E-11
   2.09999997E-02  -4.79181382E-11
   2.19999999E-02  -3.82718232E-11
   2.30000000E-02  -1.98649309E-11
   2.40000002E-02   5.94811310E-12
   2.50000004E-02   3.60488722E-11
   2.60000005E-02   6.59503910E-11
   2.70000007E-02   9.05519271E-11
   2.80000009E-02   1.05108214E-10
   2.89999992E-02   1.06203990E-10
   2.99999993E-02   9.25088200E-11
   3.09999995E-02   6.51279516E-11
   3.20000015E-02   2.74543738E-11
   3.29999998E-02  -1.54550504E-11
   3.40000018E-02  -5.78399620E-11
   3.50000001E-02  -9.43091785E-11
   3.59999985E-02  -1.20772142E-10
   3.70000005E-02  -1.35011613E-10
   3.79999988E-02  -1.36774134E-10
   3.90000008E-02  -1.27384325E-10
   3.99999991E-02  -1.09019301E-10
   4.10000011E-02  -8.38755315E-11
   4.19999994E-02  -5.34942056E-11
   4.30000015E-02  -1.84691984E-11
   4.39999998E-02   2.13472833E-11
   4.50000018E-02   6.61767446E-11
   4.60000001E-02   1.15371455E-10
   4.69999984E-02   1.66494624E-10
   4.80000004E-02   2.14757045E-10
   4.89999987E-02   2.53086496E-10
   5.00000007E-02   2.72963624E-10
   5.09999990E-02   2.65960864E-10
   5.20000011E-02   2.25715890E-10
   5.29999994E-02   1.49912624E-10
   5.40000014E-02   4.17752291E-11
   5.49999997E-02  -8.93678256E-11
   5.60000017E-02  -2.28725372E-10
   5.70000000E-02  -3.57913948E-10
   5.79999983E-02  -4.57796634E-10
   5.90000004E-02  -5.11783338E-10
   5.99999987E-02  -5.08936060E-10
   6.10000007E-02  -4.46215481E-10
   6.19999990E-02  -3.29350769E-10
   6.30000010E-02  -1.72087067E-10
   6.40000030E-02   6.08862266E-12
   6.49999976E-02   1.83304191E-10
   6.59999996E-02   3.39049400E-10
   6.70000017E-02   4.57518162E-10
   6.80000037E-02   5.29830513E-10
   6.89999983E-02   5.54669810E-10
   7.00000003E-02   5.37240086E-10
   7.10000023E-02   4.86853502E-10
   7.19999969E-02   4.13800355E-10
   7.29999989E-02   3.26345007E-10
   7.40000010E-02   2.28679145E-10
   7.50000030E-02   1.20433441E-10
   7.59999976E-02  -2.04782458E-12
   7.69999996E-02  -1.42943601E-10
   7.80000016E-02  -3.03420983E-10
   7.90000036E-02  -4.78334206E-10
   7.99999982E-02  -6.54214793E-10
   8.10000002E-02  -8.09385725E-10
   8.20000023E-02  -9.16568321E-10
   8.29999968E-02  -9.47735557E-10
   8.39999989E-02  -8.80348849E-10
   8.50000009E-02  -7.03638314E-10
   8.60000029E-02  -4.23398289E-10
   8.69999975E-02  -6.39307565E-11
   8.79999995E-02   3.33714417E-10
   8.90000015E-02   7.17279014E-10
   9.00000036E-02   1.03182018E-09
   9.09999982E-02   1.22965449E-09
   9.20000002E-02   1.27968636E-09
   9.30000022E-02   1.17405241E-09
   9.39999968E-02   9.30453714E-10
   9.49999988E-02   5.89411631E-10
   9.60000008E-02   2.06776540E-10
   9.70000029E-02  -1.57082680E-10
   9.79999974E-02  -4.49148357E-10
   9.89999995E-02  -6.34073294E-10
  0.100000001      -7.00584424E-10
  0.101000004      -6.62426947E-10
  0.101999998      -5.53542268E-10
  0.103000000      -4.18546531E-10
  0.104000002      -3.00766440E-10
  0.104999997      -2.30784544E-10
  0.105999999      -2.18450549E-10
  0.107000001      -2.50578419E-10
  0.108000003      -2.95207470E-10
  0.108999997      -3.11653953E-10
  0.109999999      -2.64010730E-10
  0.111000001      -1.34663503E-10
  0.112000003       6.59019436E-11
  0.112999998       2.96100450E-10
  0.114000000       4.88687646E-10
  0.115000002       5.64268521E-10
  0.115999997       4.50423976E-10
  0.116999999       1.02360377E-10
  0.118000001      -4.79787765E-10
  0.119000003      -1.24150845E-09
  0.119999997      -2.07533501E-09
  0.120999999      -2.83383073E-09
  0.122000001      -3.35215367E-09
  0.123000003      -3.47584006E-09
  0.123999998      -3.08795789E-09
  0.125000000      -2.12958406E-09
  0.126000002      -6.08797512E-10
  0.127000004       1.40418266E-09
  0.128000006       3.79496079E-09
  0.128999993       6.43219122E-09
  0.129999995       9.19793930E-09
  0.130999997       1.20141213E-08
  0.131999999       1.48587498E-08
  0.133000001       1.77680128E-08
  0.134000003       2.08236042E-08
  0.135000005       2.41284077E-08
  0.136000007       2.77766876E-08
  0.136999995       3.18266231E-08
  0.137999997       3.62828345E-08
  0.138999999       4.10944843E-08
  0.140000001       4.61709746E-08
  0.141000003       5.14129788E-08
  0.142000005       5.67526754E-08
  0.143000007       6.21943670E-08
  0.143999994       6.78460239E-08
  0.144999996       7.39338191E-08
  0.145999998       8.07952460E-08
  0.147000000       8.88509391E-08
  0.148000002       9.85603279E-08
  0.149000004       1.10369925E-07
  0.150000006       1.24665036E-07
  0.150999993       1.41735256E-07
  0.151999995       1.61761406E-07
  0.152999997       1.84826973E-07
  0.153999999       2.10952024E-07
  0.155000001       2.40142526E-07
  0.156000003       2.72445021E-07
  0.157000005       3.07995322E-07
  0.158000007       3.47051611E-07
  0.158999994       3.90005482E-07
  0.159999996       4.37370090E-07
  0.160999998       4.89749539E-07
  0.162000000       5.47797868E-07
  0.163000003       6.12178610E-07
  0.164000005       6.83535916E-07
  0.165000007       7.62485229E-07
  0.165999994       8.49627838E-07
  0.166999996       9.45587885E-07
  0.167999998       1.05106449E-06
  0.169000000       1.16688921E-06
  0.170000002       1.29407601E-06
  0.171000004       1.43385273E-06
  0.172000006       1.58766727E-06
  0.172999993       1.75716491E-06
  0.173999995       1.94414179E-06
  0.174999997       2.15048271E-06
  0.175999999       2.37809854E-06
  0.177000001       2.62887374E-06
  0.178000003       2.90464004E-06
  0.179000005       3.20718277E-06
  0.180000007       3.53827909E-06
  0.180999994       3.89976640E-06
  0.181999996       4.29362444E-06
  0.182999998       4.72206239E-06
  0.184000000       5.18758497E-06
  0.185000002       5.69303711E-06
  0.186000004       6.24160703E-06
  0.187000006       6.83679991E-06
  0.187999994       7.48237881E-06
  0.188999996       8.18229637E-06
  0.189999998       8.94062941E-06
  0.191000000       9.76153115E-06
  0.192000002       1.06492225E-05
  0.193000004       1.16080146E-05
  0.194000006       1.26423665E-05
  0.194999993       1.37569668E-05
  0.195999995       1.49568186E-05
  0.196999997       1.62473007E-05
  0.197999999       1.76342073E-05
  0.199000001       1.91237414E-05
  0.200000003       2.07224639E-05
  0.201000005       2.24372197E-05
  0.202000007       2.42750393E-05
  0.202999994       2.62430476E-05
  0.203999996       2.83484005E-05
  0.204999998       3.05982539E-05
  0.206000000       3.29997711E-05
  0.207000002       3.55601878E-05
  0.208000004       3.82868893E-05
  0.209000006       4.11875117E-05
  0.209999993       4.42699966E-05
  0.210999995       4.75426386E-05
  0.211999997       5.10140999E-05
  0.213000000       5.46933406E-05
  0.214000002       5.85895395E-05
  0.215000004       6.27120025E-05
  0.216000006       6.70700319E-05
  0.216999993       7.16728537E-05
  0.217999995       7.65295335E-05
  0.218999997       8.16489628E-05
  0.219999999       8.70398871E-05
  0.221000001       9.27109068E-05
  0.222000003       9.86705418E-05
  0.223000005       1.04927254E-04
  0.224000007       1.11489440E-04
  0.224999994       1.18365431E-04
  0.225999996       1.25563398E-04
  0.226999998       1.33091322E-04
  0.228000000       1.40956821E-04
  0.229000002       1.49167055E-04
  0.230000004       1.57728631E-04
  0.231000006       1.66647544E-04
  0.231999993       1.75929061E-04
  0.232999995       1.85577752E-04
  0.233999997       1.95597459E-04
  0.234999999       2.05991295E-04
  0.236000001       2.16761633E-04
  0.237000003       2.27910175E-04
  0.238000005       2.39437984E-04
  0.238999993       2.51345424E-04
  0.239999995       2.63632071E-04
  0.240999997       2.76296865E-04
  0.241999999       2.89337884E-04
  0.243000001       3.02752276E-04
  0.244000003       3.16536170E-04
  0.245000005       3.30684503E-04
  0.246000007       3.45191074E-04
  0.246999994       3.60048318E-04
  0.247999996       3.75247415E-04
  0.248999998       3.90778237E-04
  0.250000000       4.06629435E-04
  0.250999987       4.22788493E-04
  0.252000004       4.39241907E-04
  0.252999991       4.55975154E-04
  0.254000008       4.72972810E-04
  0.254999995       4.90218517E-04
  0.256000012       5.07694844E-04
  0.256999999       5.25383453E-04
  0.257999986       5.43264730E-04
  0.259000003       5.61317895E-04
  0.259999990       5.79520711E-04
  0.261000007       5.97849721E-04
  0.261999995       6.16280246E-04
  0.263000011       6.34786556E-04
  0.263999999       6.53342111E-04
  0.264999986       6.71919668E-04
  0.266000003       6.90491754E-04
  0.266999990       7.09030777E-04
  0.268000007       7.27508799E-04
  0.268999994       7.45897938E-04
  0.270000011       7.64169963E-04
  0.270999998       7.82296236E-04
  0.272000015       8.00247770E-04
  0.273000002       8.17995053E-04
  0.273999989       8.35507934E-04
  0.275000006       8.52756086E-04
  0.275999993       8.69709009E-04
  0.277000010       8.86336435E-04
  0.277999997       9.02608386E-04
  0.279000014       9.18495876E-04
  0.280000001       9.33970732E-04
  0.280999988       9.49005655E-04
  0.282000005       9.63574275E-04
  0.282999992       9.77651100E-04
  0.284000009       9.91211273E-04
  0.284999996       1.00423058E-03
  0.286000013       1.01668527E-03
  0.287000000       1.02855195E-03
  0.287999988       1.03980827E-03
  0.289000005       1.05043268E-03
  0.289999992       1.06040493E-03
  0.291000009       1.06970617E-03
  0.291999996       1.07831927E-03
  0.293000013       1.08622899E-03
  0.294000000       1.09342183E-03
  0.294999987       1.09988626E-03
  0.296000004       1.10561214E-03
  0.296999991       1.11059088E-03
  0.298000008       1.11481466E-03
  0.298999995       1.11827732E-03
  0.300000012       1.12097315E-03
  0.300999999       1.12289784E-03
  0.301999986       1.12404826E-03
  0.303000003       1.12442230E-03
  0.303999990       1.12401939E-03
  0.305000007       1.12284033E-03
  0.305999994       1.12088758E-03
  0.307000011       1.11816509E-03
  0.307999998       1.11467822E-03
  0.308999985       1.11043314E-03
  0.310000002       1.10543740E-03
  0.310999990       1.09969894E-03
  0.312000006       1.09322637E-03
  0.312999994       1.08602911E-03
  0.314000010       1.07811647E-03
  0.314999998       1.06949860E-03
  0.316000015       1.06018619E-03
  0.317000002       1.05019077E-03
  0.317999989       1.03952421E-03
  0.319000006       1.02819945E-03
  0.319999993       1.01622997E-03
  0.321000010       1.00362988E-03
  0.321999997       9.90413828E-04
  0.323000014       9.76596377E-04
  0.324000001       9.62192367E-04
  0.324999988       9.47216118E-04
  0.326000005       9.31681774E-04
  0.326999992       9.15603072E-04
  0.328000009       8.98993399E-04
  0.328999996       8.81865795E-04
  0.330000013       8.64233065E-04
  0.331000000       8.46107607E-04
  0.331999987       8.27501644E-04
  0.333000004       8.08427227E-04
  0.333999991       7.88896228E-04
  0.335000008       7.68920057E-04
  0.335999995       7.48509774E-04
  0.337000012       7.27675855E-04
  0.338000000       7.06428546E-04
  0.338999987       6.84777624E-04
  0.340000004       6.62732346E-04
  0.340999991       6.40301732E-04
  0.342000008       6.17494399E-04
  0.342999995       5.94319019E-04
  0.344000012       5.70784032E-04
  0.344999999       5.46897645E-04
  0.345999986       5.22667950E-04
  0.347000003       4.98102920E-04
  0.347999990       4.73210181E-04
  0.349000007       4.47997125E-04
  0.349999994       4.22470795E-04
  0.351000011       3.96638119E-04
  0.351999998       3.70505557E-04
  0.352999985       3.44079483E-04
  0.354000002       3.17366153E-04
  0.354999989       2.90371798E-04
  0.356000006       2.63102789E-04
  0.356999993       2.35565603E-04
  0.358000010       2.07766774E-04
  0.358999997       1.79712762E-04
  0.360000014       1.51410117E-04
  0.361000001       1.22865400E-04
  0.361999989       9.40851896E-05
  0.363000005       6.50762013E-05
  0.363999993       3.58454890E-05
  0.365000010       6.40057215E-06
  0.365999997      -2.32503317E-05
  0.367000014      -5.30984435E-05
  0.368000001      -8.31346260E-05
  0.368999988      -1.13349401E-04
  0.370000005      -1.43733268E-04
  0.370999992      -1.74276865E-04
  0.372000009      -2.04971060E-04
  0.372999996      -2.35807078E-04
  0.374000013      -2.66776362E-04
  0.375000000      -2.97870429E-04
  0.375999987      -3.29080474E-04
  0.377000004      -3.60397273E-04
  0.377999991      -3.91810929E-04
  0.379000008      -4.23311081E-04
  0.379999995      -4.54886962E-04
  0.381000012      -4.86527832E-04
  0.381999999      -5.18223096E-04
  0.382999986      -5.49962686E-04
  0.384000003      -5.81737084E-04
  0.384999990      -6.13537326E-04
  0.386000007      -6.45354856E-04
  0.386999995      -6.77181350E-04
  0.388000011      -7.09008251E-04
  0.388999999      -7.40827003E-04
  0.389999986      -7.72628759E-04
  0.391000003      -8.04404437E-04
  0.391999990      -8.36145016E-04
  0.393000007      -8.67841765E-04
  0.393999994      -8.99486535E-04
  0.395000011      -9.31071932E-04
  0.395999998      -9.62591206E-04
  0.397000015      -9.94038302E-04
  0.398000002      -1.02540734E-03
  0.398999989      -1.05669280E-03
  0.400000006      -1.08788919E-03
  0.400999993      -1.11899106E-03
  0.402000010      -1.14999304E-03
  0.402999997      -1.18089002E-03
  0.404000014      -1.21167733E-03
  0.405000001      -1.24235079E-03
  0.405999988      -1.27290678E-03
  0.407000005      -1.30334240E-03
  0.407999992      -1.33365544E-03
  0.409000009      -1.36384368E-03
  0.409999996      -1.39390526E-03
  0.411000013      -1.42383785E-03
  0.412000000      -1.45363878E-03
  0.412999988      -1.48330536E-03
  0.414000005      -1.51283422E-03
  0.414999992      -1.54222210E-03
  0.416000009      -1.57146563E-03
  0.416999996      -1.60056178E-03
  0.418000013      -1.62950775E-03
  0.419000000      -1.65830087E-03
  0.419999987      -1.68693822E-03
  0.421000004      -1.71541702E-03
  0.421999991      -1.74373353E-03
  0.423000008      -1.77188369E-03
  0.423999995      -1.79986237E-03
  0.425000012      -1.82766339E-03
  0.425999999      -1.85527978E-03
  0.426999986      -1.88270339E-03
  0.428000003      -1.90992560E-03
  0.428999990      -1.93693687E-03
  0.430000007      -1.96372741E-03
  0.430999994      -1.99028640E-03
  0.432000011      -2.01660232E-03
  0.432999998      -2.04266305E-03
  0.433999985      -2.06845510E-03
  0.435000002      -2.09396426E-03
  0.435999990      -2.11917469E-03
  0.437000006      -2.14406895E-03
  0.437999994      -2.16862839E-03
  0.439000010      -2.19283253E-03
  0.439999998      -2.21665995E-03
  0.441000015      -2.24008784E-03
  0.442000002      -2.26309150E-03
  0.442999989      -2.28564534E-03
  0.444000006      -2.30772188E-03
  0.444999993      -2.32929247E-03
  0.446000010      -2.35032663E-03
  0.446999997      -2.37079221E-03
  0.448000014      -2.39065569E-03
  0.449000001      -2.40988145E-03
  0.449999988      -2.42843316E-03
  0.451000005      -2.44627288E-03
  0.451999992      -2.46336148E-03
  0.453000009      -2.47965893E-03
  0.453999996      -2.49512377E-03
  0.455000013      -2.50971317E-03
  0.456000000      -2.52338313E-03
  0.456999987      -2.53608823E-03
  0.458000004      -2.54778261E-03
  0.458999991      -2.55841925E-03
  0.460000008      -2.56795087E-03
  0.460999995      -2.57632951E-03
  0.462000012      -2.58350722E-03
  0.463000000      -2.58943602E-03
  0.463999987      -2.59406841E-03
  0.465000004      -2.59735598E-03
  0.465999991      -2.59925076E-03
  0.467000008      -2.59970431E-03
  0.467999995      -2.59866798E-03
  0.469000012      -2.59609357E-03
  0.469999999      -2.59193359E-03
  0.470999986      -2.58614193E-03
  0.472000003      -2.57867388E-03
  0.472999990      -2.56948709E-03
  0.474000007      -2.55854218E-03
  0.474999994      -2.54580099E-03
  0.476000011      -2.53122882E-03
  0.476999998      -2.51479284E-03
  0.477999985      -2.49646255E-03
  0.479000002      -2.47621001E-03
  0.479999989      -2.45400937E-03
  0.481000006      -2.42983876E-03
  0.481999993      -2.40367930E-03
  0.483000010      -2.37551681E-03
  0.483999997      -2.34534126E-03
  0.485000014      -2.31314800E-03
  0.486000001      -2.27893749E-03
  0.486999989      -2.24271487E-03
  0.488000005      -2.20449083E-03
  0.488999993      -2.16428097E-03
  0.490000010      -2.12210580E-03
  0.490999997      -2.07799021E-03
  0.492000014      -2.03196472E-03
  0.493000001      -1.98406493E-03
  0.493999988      -1.93433161E-03
  0.495000005      -1.88281119E-03
  0.495999992      -1.82955666E-03
  0.497000009      -1.77462678E-03
  0.497999996      -1.71808677E-03
  0.499000013      -1.66000845E-03
  0.500000000      -1.60046946E-03
  0.500999987      -1.53955352E-03
  0.501999974      -1.47735013E-03
  0.503000021      -1.41395419E-03
  0.504000008      -1.34946581E-03
  0.504999995      -1.28399045E-03
  0.505999982      -1.21763896E-03
  0.507000029      -1.15052692E-03
  0.508000016      -1.08277530E-03
  0.509000003      -1.01450947E-03
  0.509999990      -9.45859472E-04
  0.510999978      -8.76959006E-04
  0.512000024      -8.07945442E-04
  0.513000011      -7.38958654E-04
  0.513999999      -6.70140784E-04
  0.514999986      -6.01635897E-04
  0.515999973      -5.33589569E-04
  0.517000020      -4.66148573E-04
  0.518000007      -3.99461016E-04
  0.518999994      -3.33675969E-04
  0.519999981      -2.68943142E-04
  0.521000028      -2.05412507E-04
  0.522000015      -1.43233599E-04
  0.523000002      -8.25548705E-05
  0.523999989      -2.35226998E-05
  0.524999976       3.37193887E-05
  0.526000023       8.90314186E-05
  0.527000010       1.42277422E-04
  0.527999997       1.93325744E-04
  0.528999984       2.42049107E-04
  0.529999971       2.88324605E-04
  0.531000018       3.32033902E-04
  0.532000005       3.73063376E-04
  0.532999992       4.11304529E-04
  0.533999979       4.46654827E-04
  0.535000026       4.79018374E-04
  0.536000013       5.08306955E-04
  0.537000000       5.34440915E-04
  0.537999988       5.57349587E-04
  0.538999975       5.76971797E-04
  0.540000021       5.93255507E-04
  0.541000009       6.06157701E-04
  0.541999996       6.15643803E-04
  0.542999983       6.21687563E-04
  0.544000030       6.24270644E-04
  0.545000017       6.23382861E-04
  0.546000004       6.19022409E-04
  0.546999991       6.11196796E-04
  0.547999978       5.99922903E-04
  0.549000025       5.85227797E-04
  0.550000012       5.67148672E-04
  0.550999999       5.45732619E-04
  0.551999986       5.21036447E-04
  0.552999973       4.93125583E-04
  0.554000020       4.62073367E-04
  0.555000007       4.27960360E-04
  0.555999994       3.90873873E-04
  0.556999981       3.50907620E-04
  0.558000028       3.08161805E-04
  0.559000015       2.62743270E-04
  0.560000002       2.14765780E-04
  0.560999990       1.64349985E-04
  0.561999977       1.11623252E-04
  0.563000023       5.67191564E-05
  0.564000010      -2.23231439E-07
  0.564999998      -5.90603377E-05
  0.565999985      -1.19645134E-04
  0.566999972      -1.81828087E-04
  0.568000019      -2.45457806E-04
  0.569000006      -3.10381496E-04
  0.569999993      -3.76445241E-04
  0.570999980      -4.43494035E-04
  0.572000027      -5.11371938E-04
  0.573000014      -5.79922285E-04
  0.574000001      -6.48987945E-04
  0.574999988      -7.18411990E-04
  0.575999975      -7.88038247E-04
  0.577000022      -8.57712352E-04
  0.578000009      -9.27282672E-04
  0.578999996      -9.96600604E-04
  0.579999983      -1.06552150E-03
  0.580999970      -1.13390456E-03
  0.582000017      -1.20161276E-03
  0.583000004      -1.26851362E-03
  0.583999991      -1.33447838E-03
  0.584999979      -1.39938237E-03
  0.586000025      -1.46310520E-03
  0.587000012      -1.52553117E-03
  0.588000000      -1.58655003E-03
  0.588999987      -1.64605724E-03
  0.589999974      -1.70395453E-03
  0.591000021      -1.76015031E-03
  0.592000008      -1.81455957E-03
  0.592999995      -1.86710432E-03
  0.593999982      -1.91771321E-03
  0.595000029      -1.96632068E-03
  0.596000016      -2.01286771E-03
  0.597000003      -2.05730111E-03
  0.597999990      -2.09957291E-03
  0.598999977      -2.13964167E-03
  0.600000024      -2.17747153E-03
  0.601000011      -2.21303361E-03
  0.601999998      -2.24630558E-03
  0.602999985      -2.27727182E-03
  0.603999972      -2.30592326E-03
  0.605000019      -2.33225711E-03
  0.606000006      -2.35627568E-03
  0.606999993      -2.37798737E-03
  0.607999980      -2.39740429E-03
  0.609000027      -2.41454365E-03
  0.610000014      -2.42942641E-03
  0.611000001      -2.44207797E-03
  0.611999989      -2.45252741E-03
  0.612999976      -2.46080779E-03
  0.614000022      -2.46695685E-03
  0.615000010      -2.47101579E-03
  0.615999997      -2.47302977E-03
  0.616999984      -2.47304724E-03
  0.617999971      -2.47111986E-03
  0.619000018      -2.46730144E-03
  0.620000005      -2.46164785E-03
  0.620999992      -2.45421659E-03
  0.621999979      -2.44506658E-03
  0.623000026      -2.43425858E-03
  0.624000013      -2.42185453E-03
  0.625000000      -2.40791752E-03
  0.625999987      -2.39251205E-03
  0.626999974      -2.37570354E-03
  0.628000021      -2.35755788E-03
  0.629000008      -2.33814190E-03
  0.629999995      -2.31752265E-03
  0.630999982      -2.29576672E-03
  0.632000029      -2.27294071E-03
  0.633000016      -2.24911026E-03
  0.634000003      -2.22434034E-03
  0.634999990      -2.19869497E-03
  0.635999978      -2.17223749E-03
  0.637000024      -2.14503007E-03
  0.638000011      -2.11713393E-03
  0.638999999      -2.08860915E-03
  0.639999986      -2.05951487E-03
  0.640999973      -2.02990836E-03
  0.642000020      -1.99984550E-03
  0.643000007      -1.96938077E-03
  0.643999994      -1.93856715E-03
  0.644999981      -1.90745632E-03
  0.646000028      -1.87609810E-03
  0.647000015      -1.84454094E-03
  0.648000002      -1.81283173E-03
  0.648999989      -1.78101554E-03
  0.649999976      -1.74913555E-03
  0.651000023      -1.71723298E-03
  0.652000010      -1.68534729E-03
  0.652999997      -1.65351608E-03
  0.653999984      -1.62177510E-03
  0.654999971      -1.59015867E-03
  0.656000018      -1.55869930E-03
  0.657000005      -1.52742804E-03
  0.657999992      -1.49637426E-03
  0.658999979      -1.46556506E-03
  0.660000026      -1.43502594E-03
  0.661000013      -1.40478020E-03
  0.662000000      -1.37484912E-03
  0.662999988      -1.34525239E-03
  0.663999975      -1.31600862E-03
  0.665000021      -1.28713506E-03
  0.666000009      -1.25864823E-03
  0.666999996      -1.23056374E-03
  0.667999983      -1.20289566E-03
  0.669000030      -1.17565715E-03
  0.670000017      -1.14885927E-03
  0.671000004      -1.12251146E-03
  0.671999991      -1.09662092E-03
  0.672999978      -1.07119349E-03
  0.674000025      -1.04623334E-03
  0.675000012      -1.02174398E-03
  0.675999999      -9.97728901E-04
  0.676999986      -9.74191411E-04
  0.677999973      -9.51134949E-04
  0.679000020      -9.28562775E-04
  0.680000007      -9.06477333E-04
  0.680999994      -8.84879963E-04
  0.681999981      -8.63770256E-04
  0.683000028      -8.43146117E-04
  0.684000015      -8.23003589E-04
  0.685000002      -8.03337665E-04
  0.685999990      -7.84142816E-04
  0.686999977      -7.65413512E-04
  0.688000023      -7.47144863E-04
  0.689000010      -7.29332853E-04
  0.689999998      -7.11973931E-04
  0.690999985      -6.95064722E-04
  0.691999972      -6.78601325E-04
  0.693000019      -6.62578736E-04
  0.694000006      -6.46990491E-04
  0.694999993      -6.31828676E-04
  0.695999980      -6.17084443E-04