 -0.159999996       0.00000000    
 -0.158999994       0.00000000    
 -0.158000007       0.00000000    
 -0.157000005       0.00000000    
 -0.156000003      -1.19266262E-16
 -0.155000001      -9.30384166E-16
 -0.153999999      -3.85856838E-15
 -0.152999997      -1.11326912E-14
 -0.151999995      -2.46110945E-14
 -0.150999993      -4.32550927E-14
 -0.150000006      -6.02719982E-14
 -0.149000004      -6.25735425E-14
 -0.148000002      -3.60161526E-14
 -0.147000000       2.16170245E-14
 -0.145999998       8.26222635E-14
 -0.144999996       7.59416062E-14
 -0.143999994      -1.06653774E-13
 -0.143000007      -5.70711067E-13
 -0.142000005      -1.34319834E-12
 -0.141000003      -2.28028512E-12
 -0.140000001      -3.00380706E-12
 -0.138999999      -2.92615476E-12
 -0.137999997      -1.41210741E-12
 -0.136999995       1.91984536E-12
 -0.136000007       6.82860365E-12
 -0.135000005       1.21634725E-11
 -0.134000003       1.58497694E-11
 -0.133000001       1.53033298E-11
 -0.131999999       8.30192685E-12
 -0.130999997      -5.85998524E-12
 -0.129999995      -2.53169638E-11
 -0.128999993      -4.51863685E-11
 -0.128000006      -5.81847383E-11
 -0.127000004      -5.64875473E-11
 -0.126000002      -3.45592097E-11
 -0.125000000       7.82170335E-12
 -0.123999998       6.34701250E-11
 -0.123000003       1.17774290E-10
 -0.122000001       1.51446855E-10
 -0.120999999       1.45899820E-10
 -0.119999997       9.00624991E-11
 -0.119000003      -1.34098635E-11
 -0.118000001      -1.44927126E-10
 -0.116999999      -2.69696460E-10
 -0.115999997      -3.45088180E-10
 -0.115000002      -3.32554068E-10
 -0.114000000      -2.11237333E-10
 -0.112999998       1.07611879E-11
 -0.112000003       2.91566188E-10
 -0.111000001       5.60029356E-10
 -0.109999999       7.30083216E-10
 -0.108999997       7.22628901E-10
 -0.108000003       4.90075203E-10
 -0.107000001       3.71479583E-11
 -0.105999999      -5.68326108E-10
 -0.104999997      -1.19920074E-09
 -0.104000002      -1.68882808E-09
 -0.103000000      -1.86469062E-09
 -0.101999998      -1.59012714E-09
 -0.101000004      -8.05867151E-10
 -0.100000001       4.38029335E-10
  -9.89999995E-02   1.96863925E-09
  -9.79999974E-02   3.50154261E-09
  -9.70000029E-02   4.67966643E-09
  -9.60000008E-02   5.13699439E-09
  -9.49999988E-02   4.57862281E-09
  -9.39999968E-02   2.86295720E-09
  -9.30000022E-02   6.76819226E-11
  -9.20000002E-02  -3.47985907E-09
  -9.09999982E-02  -7.22366833E-09
  -9.00000036E-02  -1.04584270E-08
  -8.90000015E-02  -1.24606956E-08
  -8.79999995E-02  -1.26500588E-08
  -8.69999975E-02  -1.07447926E-08
  -8.60000029E-02  -6.86995349E-09
  -8.50000009E-02  -1.57977076E-09
  -8.39999989E-02   4.22742286E-09
  -8.29999968E-02   9.49700851E-09
  -8.20000023E-02   1.32733673E-08
  -8.10000002E-02   1.49615236E-08
  -7.99999982E-02   1.45222536E-08
  -7.90000036E-02   1.25364501E-08
  -7.80000016E-02   1.01046709E-08
  -7.69999996E-02   8.59323990E-09
  -7.59999976E-02   9.28683708E-09
  -7.50000030E-02   1.30437270E-08
  -7.40000010E-02   2.00600905E-08
  -7.29999989E-02   2.98272447E-08
  -7.19999969E-02   4.13128909E-08
  -7.10000023E-02   5.33286375E-08
  -7.00000003E-02   6.49815490E-08
  -6.89999983E-02   7.60698242E-08
  -6.80000037E-02   8.72868924E-08
  -6.70000017E-02   1.00148512E-07
  -6.59999996E-02   1.16640749E-07
  -6.49999976E-02   1.38679454E-07
  -6.40000030E-02   1.67543078E-07
  -6.30000010E-02   2.03464381E-07
  -6.19999990E-02   2.45530515E-07
  -6.10000007E-02   2.91951551E-07
  -5.99999987E-02   3.40640241E-07
  -5.90000004E-02   3.89939430E-07
  -5.79999983E-02   4.39271844E-07
  -5.70000000E-02   4.89499769E-07
  -5.60000017E-02   5.42863916E-07
  -5.49999997E-02   6.02506759E-07
  -5.40000014E-02   6.71723001E-07
  -5.29999994E-02   7.53183429E-07
  -5.20000011E-02   8.48398486E-07
  -5.09999990E-02   9.57619477E-07
  -5.00000007E-02   1.08023528E-06
  -4.89999987E-02   1.21555126E-06
  -4.80000004E-02   1.36369533E-06
  -4.69999984E-02   1.52633822E-06
  -4.60000001E-02   1.70695739E-06
  -4.50000018E-02   1.91052072E-06
  -4.39999998E-02   2.14266402E-06
  -4.30000015E-02   2.40861846E-06
  -4.19999994E-02   2.71225895E-06
  -4.10000011E-02   3.05562071E-06
  -3.99999991E-02   3.43910438E-06
  -3.90000008E-02   3.86235934E-06
  -3.79999988E-02   4.32560455E-06
  -3.70000005E-02   4.83098165E-06
  -3.59999985E-02   5.38348513E-06
  -3.50000001E-02   5.99115265E-06
  -3.40000018E-02   6.66440928E-06
  -3.29999998E-02   7.41475560E-06
  -3.20000015E-02   8.25321331E-06
  -3.09999995E-02   9.18905607E-06
  -2.99999993E-02   1.02292697E-05
  -2.89999992E-02   1.13789683E-05
  -2.80000009E-02   1.26426876E-05
  -2.70000007E-02   1.40261518E-05
  -2.60000005E-02   1.55379676E-05
  -2.50000004E-02   1.71906649E-05
  -2.40000002E-02   1.90007486E-05
  -2.30000000E-02   2.09876926E-05
  -2.19999999E-02   2.31722024E-05
  -2.09999997E-02   2.55743362E-05
  -1.99999996E-02   2.82121000E-05
  -1.89999994E-02   3.11010663E-05
  -1.79999992E-02   3.42551502E-05
  -1.70000009E-02   3.76884309E-05
  -1.60000008E-02   4.14173810E-05
  -1.49999997E-02   4.54629080E-05
  -1.40000004E-02   4.98514819E-05
  -1.30000003E-02   5.46150804E-05
  -1.20000001E-02   5.97899052E-05
  -1.09999999E-02   6.54143587E-05
  -9.99999978E-03   7.15269562E-05
  -8.99999961E-03   7.81648414E-05
  -8.00000038E-03   8.53634992E-05
  -7.00000022E-03   9.31576942E-05
  -6.00000005E-03   1.01583384E-04
  -4.99999989E-03   1.10679990E-04
  -4.00000019E-03   1.20492274E-04
  -3.00000003E-03   1.31071240E-04
  -2.00000009E-03   1.42473771E-04
  -1.00000005E-03   1.54761205E-04
   0.00000000       1.67997277E-04
   1.00000005E-03   1.82246207E-04
   2.00000009E-03   1.97571659E-04
   3.00000003E-03   2.14036714E-04
   4.00000019E-03   2.31705155E-04
   4.99999989E-03   2.50643381E-04
   6.00000005E-03   2.70922348E-04
   7.00000022E-03   2.92618963E-04
   8.00000038E-03   3.15816345E-04
   8.99999961E-03   3.40602797E-04
   9.99999978E-03   3.67070112E-04
   1.09999999E-02   3.95311567E-04
   1.20000001E-02   4.25420207E-04
   1.30000003E-02   4.57488466E-04
   1.40000004E-02   4.91608807E-04
   1.49999997E-02   5.27875556E-04
   1.60000008E-02   5.66387025E-04
   1.70000009E-02   6.07247348E-04
   1.79999992E-02   6.50567701E-04
   1.89999994E-02   6.96465955E-04
   1.99999996E-02   7.45065277E-04
   2.09999997E-02   7.96491862E-04
   2.19999999E-02   8.50872486E-04
   2.30000000E-02   9.08332528E-04
   2.40000002E-02   9.68995388E-04
   2.50000004E-02   1.03298284E-03
   2.60000005E-02   1.10041595E-03
   2.70000007E-02   1.17141707E-03
   2.80000009E-02   1.24611054E-03
   2.89999992E-02   1.32462382E-03
   2.99999993E-02   1.40708650E-03
   3.09999995E-02   1.49362942E-03
   3.20000015E-02   1.58438261E-03
   3.29999998E-02   1.67947344E-03
   3.40000018E-02   1.77902600E-03
   3.50000001E-02   1.88316067E-03
   3.59999985E-02   1.99199421E-03
   3.70000005E-02   2.10564095E-03
   3.79999988E-02   2.22421391E-03
   3.90000008E-02   2.34782486E-03
   3.99999991E-02   2.47658393E-03
   4.10000011E-02   2.61059846E-03
   4.19999994E-02   2.74997088E-03
   4.30000015E-02   2.89479783E-03
   4.39999998E-02   3.04516684E-03
   4.50000018E-02   3.20115639E-03
   4.60000001E-02   3.36283562E-03
   4.69999984E-02   3.53026390E-03
   4.80000004E-02   3.70349130E-03
   4.89999987E-02   3.88255995E-03
   5.00000007E-02   4.06750338E-03
   5.09999990E-02   4.25834581E-03
   5.20000011E-02   4.45510261E-03
   5.29999994E-02   4.65777749E-03
   5.40000014E-02   4.86636162E-03
   5.49999997E-02   5.08083357E-03
   5.60000017E-02   5.30115748E-03
   5.70000000E-02   5.52728539E-03
   5.79999983E-02   5.75915491E-03
   5.90000004E-02   5.99668967E-03
   5.99999987E-02   6.23979932E-03
   6.10000007E-02   6.48837816E-03
   6.19999990E-02   6.74230373E-03
   6.30000010E-02   7.00143538E-03
   6.40000030E-02   7.26561435E-03
   6.49999976E-02   7.53466319E-03
   6.59999996E-02   7.80838495E-03
   6.70000017E-02   8.08656774E-03
   6.80000037E-02   8.36898107E-03
   6.89999983E-02   8.65538046E-03
   7.00000003E-02   8.94550420E-03
   7.10000023E-02   9.23907571E-03
   7.19999969E-02   9.53579880E-03
   7.29999989E-02   9.83535871E-03
   7.40000010E-02   1.01374220E-02
   7.50000030E-02   1.04416311E-02
   7.59999976E-02   1.07476097E-02
   7.69999996E-02   1.10549629E-02
   7.80000016E-02   1.13632791E-02
   7.90000036E-02   1.16721308E-02
   7.99999982E-02   1.19810812E-02
   8.10000002E-02   1.22896815E-02
   8.20000023E-02   1.25974724E-02
   8.29999968E-02   1.29039818E-02
   8.39999989E-02   1.32087227E-02
   8.50000009E-02   1.35111948E-02
   8.60000029E-02   1.38108842E-02
   8.69999975E-02   1.41072599E-02
   8.79999995E-02   1.43997828E-02
   8.90000015E-02   1.46879042E-02
   9.00000036E-02   1.49710681E-02
   9.09999982E-02   1.52487205E-02
   9.20000002E-02   1.55203072E-02
   9.30000022E-02   1.57852750E-02
   9.39999968E-02   1.60430707E-02
   9.49999988E-02   1.62931457E-02
   9.60000008E-02   1.65349506E-02
   9.70000029E-02   1.67679321E-02
   9.79999974E-02   1.69915408E-02
   9.89999995E-02   1.72052328E-02
  0.100000001       1.74084753E-02
  0.101000004       1.76007450E-02
  0.101999998       1.77815370E-02
  0.103000000       1.79503690E-02
  0.104000002       1.81067772E-02
  0.104999997       1.82503238E-02
  0.105999999       1.83805861E-02
  0.107000001       1.84971616E-02
  0.108000003       1.85996667E-02
  0.108999997       1.86877418E-02
  0.109999999       1.87610462E-02
  0.111000001       1.88192669E-02
  0.112000003       1.88621301E-02
  0.112999998       1.88893899E-02
  0.114000000       1.89008433E-02
  0.115000002       1.88963301E-02
  0.115999997       1.88757330E-02
  0.116999999       1.88389700E-02
  0.118000001       1.87859945E-02
  0.119000003       1.87167954E-02
  0.119999997       1.86313987E-02
  0.120999999       1.85298603E-02
  0.122000001       1.84122771E-02
  0.123000003       1.82787869E-02
  0.123999998       1.81295723E-02
  0.125000000       1.79648641E-02
  0.126000002       1.77849438E-02
  0.127000004       1.75901335E-02
  0.128000006       1.73807982E-02
  0.128999993       1.71573460E-02
  0.129999995       1.69202127E-02
  0.130999997       1.66698694E-02
  0.131999999       1.64068192E-02
  0.133000001       1.61315985E-02
  0.134000003       1.58447772E-02
  0.135000005       1.55469636E-02
  0.136000007       1.52387982E-02
  0.136999995       1.49209583E-02
  0.137999997       1.45941516E-02
  0.138999999       1.42591139E-02
  0.140000001       1.39166033E-02
  0.141000003       1.35673936E-02
  0.142000005       1.32122710E-02
  0.143000007       1.28520299E-02
  0.143999994       1.24874739E-02
  0.144999996       1.21194124E-02
  0.145999998       1.17486622E-02
  0.147000000       1.13760475E-02
  0.148000002       1.10024009E-02
  0.149000004       1.06285559E-02
  0.150000006       1.02553461E-02
  0.150999993       9.88359842E-03
  0.151999995       9.51412879E-03
  0.152999997       9.14773624E-03
  0.153999999       8.78519937E-03
  0.155000001       8.42727441E-03
  0.156000003       8.07469431E-03
  0.157000005       7.72816921E-03
  0.158000007       7.38838594E-03
  0.158999994       7.05600809E-03
  0.159999996       6.73167314E-03
  0.160999998       6.41599065E-03
  0.162000000       6.10953849E-03
  0.163000003       5.81285870E-03
  0.164000005       5.52645419E-03
  0.165000007       5.25078597E-03
  0.165999994       4.98627126E-03
  0.166999996       4.73328307E-03
  0.167999998       4.49215341E-03
  0.169000000       4.26317379E-03
  0.170000002       4.04659612E-03
  0.171000004       3.84263555E-03
  0.172000006       3.65147018E-03
  0.172999993       3.47323925E-03
  0.173999995       3.30804265E-03
  0.174999997       3.15593951E-03
  0.175999999       3.01694614E-03
  0.177000001       2.89103622E-03
  0.178000003       2.77814153E-03
  0.179000005       2.67815473E-03
  0.180000007       2.59093125E-03
  0.180999994       2.51629390E-03
  0.181999996       2.45403522E-03
  0.182999998       2.40391982E-03
  0.184000000       2.36568623E-03
  0.185000002       2.33904715E-03
  0.186000004       2.32368987E-03
  0.187000006       2.31927563E-03
  0.187999994       2.32543959E-03
  0.188999996       2.34179408E-03
  0.189999998       2.36792956E-03
  0.191000000       2.40341970E-03
  0.192000002       2.44782539E-03
  0.193000004       2.50069937E-03
  0.194000006       2.56158877E-03
  0.194999993       2.63003842E-03
  0.195999995       2.70559033E-03
  0.196999997       2.78778351E-03
  0.197999999       2.87615391E-03
  0.199000001       2.97023286E-03
  0.200000003       3.06954747E-03
  0.201000005       3.17362417E-03
  0.202000007       3.28199100E-03
  0.202999994       3.39418231E-03
  0.203999996       3.50974407E-03
  0.204999998       3.62823671E-03
  0.206000000       3.74923693E-03
  0.207000002       3.87233822E-03
  0.208000004       3.99714848E-03
  0.209000006       4.12328867E-03
  0.209999993       4.25038813E-03
  0.210999995       4.37808502E-03
  0.211999997       4.50602686E-03
  0.213000000       4.63387277E-03
  0.214000002       4.76129819E-03
  0.215000004       4.88799810E-03
  0.216000006       5.01369173E-03
  0.216999993       5.13812248E-03
  0.217999995       5.26105938E-03
  0.218999997       5.38229151E-03
  0.219999999       5.50162559E-03
  0.221000001       5.61888004E-03
  0.222000003       5.73388347E-03
  0.223000005       5.84647432E-03
  0.224000007       5.95650077E-03
  0.224999994       6.06382545E-03
  0.225999996       6.16832823E-03
  0.226999998       6.26990991E-03
  0.228000000       6.36849366E-03
  0.229000002       6.46402361E-03
  0.230000004       6.55645970E-03
  0.231000006       6.64577587E-03
  0.231999993       6.73195161E-03
  0.232999995       6.81497250E-03
  0.233999997       6.89482689E-03
  0.234999999       6.97150780E-03
  0.236000001       7.04501709E-03
  0.237000003       7.11536920E-03
  0.238000005       7.18259253E-03
  0.238999993       7.24673038E-03
  0.239999995       7.30783911E-03
  0.240999997       7.36598345E-03
  0.241999999       7.42123276E-03
  0.243000001       7.47365598E-03
  0.244000003       7.52331875E-03
  0.245000005       7.57028582E-03
  0.246000007       7.61462003E-03
  0.246999994       7.65638752E-03
  0.247999996       7.69566093E-03
  0.248999998       7.73252035E-03
  0.250000000       7.76705192E-03
  0.250999987       7.79934693E-03
  0.252000004       7.82949757E-03
  0.252999991       7.85759371E-03
  0.254000008       7.88372010E-03
  0.254999995       7.90795311E-03
  0.256000012       7.93036632E-03
  0.256999999       7.95103051E-03
  0.257999986       7.97002017E-03
  0.259000003       7.98741169E-03
  0.259999990       8.00328795E-03
  0.261000007       8.01773556E-03
  0.261999995       8.03084206E-03
  0.263000011       8.04268848E-03
  0.263999999       8.05335212E-03
  0.264999986       8.06289818E-03
  0.266000003       8.07138532E-03
  0.266999990       8.07886478E-03
  0.268000007       8.08538310E-03
  0.268999994       8.09099060E-03
  0.270000011       8.09573941E-03
  0.270999998       8.09968915E-03
  0.272000015       8.10290128E-03
  0.273000002       8.10543727E-03
  0.273999989       8.10735393E-03
  0.275000006       8.10870063E-03
  0.275999993       8.10952019E-03
  0.277000010       8.10984429E-03
  0.277999997       8.10970180E-03
  0.279000014       8.10911786E-03
  0.280000001       8.10812041E-03
  0.280999988       8.10674112E-03
  0.282000005       8.10501538E-03
  0.282999992       8.10298230E-03
  0.284000009       8.10068101E-03
  0.284999996       8.09814688E-03
  0.286000013       8.09541252E-03
  0.287000000       8.09250027E-03
  0.287999988       8.08942597E-03
  0.289000005       8.08620360E-03
  0.289999992       8.08284059E-03
  0.291000009       8.07934720E-03
  0.291999996       8.07573646E-03
  0.293000013       8.07202328E-03
  0.294000000       8.06822814E-03
  0.294999987       8.06437153E-03
  0.296000004       8.06047302E-03
  0.296999991       8.05655029E-03
  0.298000008       8.05261638E-03
  0.298999995       8.04868061E-03
  0.300000012       8.04474857E-03
  0.300999999       8.04082211E-03
  0.301999986       8.03690404E-03
  0.303000003       8.03299621E-03
  0.303999990       8.02910328E-03
  0.305000007       8.02523270E-03
  0.305999994       8.02139379E-03
  0.307000011       8.01759772E-03
  0.307999998       8.01385567E-03
  0.308999985       8.01017694E-03
  0.310000002       8.00656900E-03
  0.310999990       8.00303742E-03
  0.312000006       7.99958222E-03
  0.312999994       7.99620152E-03
  0.314000010       7.99288973E-03
  0.314999998       7.98964128E-03
  0.316000015       7.98645150E-03
  0.317000002       7.98331760E-03
  0.317999989       7.98023958E-03
  0.319000006       7.97722209E-03
  0.319999993       7.97427166E-03
  0.321000010       7.97139574E-03
  0.321999997       7.96859898E-03
  0.323000014       7.96588324E-03
  0.324000001       7.96324760E-03
  0.324999988       7.96068739E-03
  0.326000005       7.95819424E-03
  0.326999992       7.95575976E-03
  0.328000009       7.95337558E-03
  0.328999996       7.95103703E-03
  0.330000013       7.94874225E-03
  0.331000000       7.94649217E-03
  0.331999987       7.94429146E-03
  0.333000004       7.94214476E-03
  0.333999991       7.94005580E-03
  0.335000008       7.93802366E-03
  0.335999995       7.93604553E-03
  0.337000012       7.93411583E-03
  0.338000000       7.93222617E-03
  0.338999987       7.93037005E-03
  0.340000004       7.92853907E-03
  0.340999991       7.92673044E-03
  0.342000008       7.92494230E-03
  0.342999995       7.92317465E-03
  0.344000012       7.92142935E-03
  0.344999999       7.91970547E-03
  0.345999986       7.91800488E-03
  0.347000003       7.91632663E-03
  0.347999990       7.91466888E-03
  0.349000007       7.91302882E-03
  0.349999994       7.91140366E-03
  0.351000011       7.90979154E-03
  0.351999998       7.90819339E-03
  0.352999985       7.90660828E-03
  0.354000002       7.90503621E-03
  0.354999989       7.90347718E-03
  0.356000006       7.90193211E-03
  0.356999993       7.90040009E-03
  0.358000010       7.89888203E-03
  0.358999997       7.89737515E-03
  0.360000014       7.89588038E-03
  0.361000001       7.89439678E-03
  0.361999989       7.89292622E-03
  0.363000005       7.89146777E-03
  0.363999993       7.89002236E-03
  0.365000010       7.88859185E-03
  0.365999997       7.88717717E-03
  0.367000014       7.88577739E-03
  0.368000001       7.88439251E-03
  0.368999988       7.88302254E-03
  0.370000005       7.88166560E-03
  0.370999992       7.88032264E-03
  0.372000009       7.87899457E-03
  0.372999996       7.87768327E-03
  0.374000013       7.87639059E-03
  0.375000000       7.87511840E-03
  0.375999987       7.87387136E-03
  0.377000004       7.87265226E-03
  0.377999991       7.87146483E-03
  0.379000008       7.87030905E-03
  0.379999995       7.86918588E-03
  0.381000012       7.86809251E-03
  0.381999999       7.86702521E-03
  0.382999986       7.86597840E-03
  0.384000003       7.86494650E-03
  0.384999990       7.86392391E-03
  0.386000007       7.86291063E-03
  0.386999995       7.86190666E-03
  0.388000011       7.86091760E-03
  0.388999999       7.85994809E-03
  0.389999986       7.85900746E-03
  0.391000003       7.85810128E-03
  0.391999990       7.85723235E-03
  0.393000007       7.85639603E-03
  0.393999994       7.85558764E-03
  0.395000011       7.85479788E-03
  0.395999998       7.85401743E-03
  0.397000015       7.85323884E-03
  0.398000002       7.85246026E-03
  0.398999989       7.85168260E-03
  0.400000006       7.85091426E-03
  0.400999993       7.85016268E-03
  0.402000010       7.84943718E-03
  0.402999997       7.84874149E-03
  0.404000014       7.84807559E-03
  0.405000001       7.84743298E-03
  0.405999988       7.84680340E-03
  0.407000005       7.84617756E-03
  0.407999992       7.84554612E-03
  0.409000009       7.84490537E-03
  0.409999996       7.84425717E-03
  0.411000013       7.84360617E-03
  0.412000000       7.84296356E-03
  0.412999988       7.84233958E-03
  0.414000005       7.84174167E-03
  0.414999992       7.84117356E-03
  0.416000009       7.84063153E-03
  0.416999996       7.84011092E-03
  0.418000013       7.83960149E-03
  0.419000000       7.83909578E-03
  0.419999987       7.83858821E-03
  0.421000004       7.83807691E-03
  0.421999991       7.83756468E-03
  0.423000008       7.83705804E-03
  0.423999995       7.83656444E-03
  0.425000012       7.83608947E-03
  0.425999999       7.83563498E-03
  0.426999986       7.83520099E-03
  0.428000003       7.83478189E-03
  0.428999990       7.83437211E-03
  0.430000007       7.83396605E-03
  0.430999994       7.83355907E-03
  0.432000011       7.83315022E-03
  0.432999998       7.83274509E-03
  0.433999985       7.83234928E-03
  0.435000002       7.83197209E-03
  0.435999990       7.83162098E-03
  0.437000006       7.83129875E-03
  0.437999994       7.83100538E-03
  0.439000010       7.83073623E-03
  0.439999998       7.83048570E-03
  0.441000015       7.83024635E-03
  0.442000002       7.83001073E-03
  0.442999989       7.82977697E-03
  0.444000006       7.82954693E-03
  0.444999993       7.82932341E-03
  0.446000010       7.82911386E-03
  0.446999997       7.82892480E-03
  0.448000014       7.82875996E-03
  0.449000001       7.82862119E-03
  0.449999988       7.82850478E-03
  0.451000005       7.82840606E-03
  0.451999992       7.82831851E-03
  0.453000009       7.82823656E-03
  0.453999996       7.82815646E-03
  0.455000013       7.82808010E-03
  0.456000000       7.82801118E-03
  0.456999987       7.82795530E-03
  0.458000004       7.82791898E-03
  0.458999991       7.82790594E-03
  0.460000008       7.82791525E-03
  0.460999995       7.82794226E-03
  0.462000012       7.82798044E-03
  0.463000000       7.82802049E-03
  0.463999987       7.82805774E-03
  0.465000004       7.82808941E-03
  0.465999991       7.82811735E-03
  0.467000008       7.82814808E-03
  0.467999995       7.82818999E-03
  0.469000012       7.82824773E-03
  0.469999999       7.82832690E-03
  0.470999986       7.82842468E-03
  0.472000003       7.82853365E-03
  0.472999990       7.82864448E-03
  0.474000007       7.82874785E-03
  0.474999994       7.82883633E-03
  0.476000011       7.82890897E-03
  0.476999998       7.82897044E-03
  0.477999985       7.82903004E-03
  0.479000002       7.82909803E-03
  0.479999989       7.82918464E-03
  0.481000006       7.82929547E-03
  0.481999993       7.82943051E-03
  0.483000010       7.82958139E-03
  0.483999997       7.82973599E-03
  0.485000014       7.82988314E-03
  0.486000001       7.83001166E-03
  0.486999989       7.83011783E-03
  0.488000005       7.83020351E-03
  0.488999993       7.83027522E-03
  0.490000010       7.83034414E-03
  0.490999997       7.83042051E-03
  0.492000014       7.83051178E-03
  0.493000001       7.83061981E-03
  0.493999988       7.83074182E-03
  0.495000005       7.83086941E-03
  0.495999992       7.83099327E-03
  0.497000009       7.83110596E-03
  0.497999996       7.83120096E-03
  0.499000013       7.83127919E-03
  0.500000000       7.83134624E-03
  0.500999987       7.83140771E-03
  0.501999974       7.83147197E-03
  0.503000021       7.83154462E-03
  0.504000008       7.83162750E-03
  0.504999995       7.83171877E-03
  0.505999982       7.83181377E-03
  0.507000029       7.83190411E-03
  0.508000016       7.83198420E-03
  0.509000003       7.83204939E-03
  0.509999990       7.83209596E-03
  0.510999978       7.83212390E-03
  0.512000024       7.83213694E-03
  0.513000011       7.83213973E-03
  0.513999999       7.83213787E-03
  0.514999986       7.83213694E-03
  0.515999973       7.83214159E-03
  0.517000020       7.83215370E-03
  0.518000007       7.83217419E-03
  0.518999994       7.83219840E-03
  0.519999981       7.83222169E-03
  0.521000028       7.83223659E-03
  0.522000015       7.83223659E-03
  0.523000002       7.83221424E-03
  0.523999989       7.83216767E-03
  0.524999976       7.83209875E-03
  0.526000023       7.83201121E-03
  0.527000010       7.83191435E-03
  0.527999997       7.83181749E-03
  0.528999984       7.83172809E-03
  0.529999971       7.83164892E-03
  0.531000018       7.83157907E-03
  0.532000005       7.83151109E-03
  0.532999992       7.83143751E-03
  0.533999979       7.83134811E-03
  0.535000026       7.83123635E-03
  0.536000013       7.83110224E-03
  0.537000000       7.83095043E-03
  0.537999988       7.83079118E-03
  0.538999975       7.83063471E-03
  0.540000021       7.83049129E-03
  0.541000009       7.83036742E-03
  0.541999996       7.83025939E-03
  0.542999983       7.83015881E-03
  0.544000030       7.83005264E-03
  0.545000017       7.82992970E-03
  0.546000004       7.82978069E-03
  0.546999991       7.82960374E-03
  0.547999978       7.82940630E-03
  0.549000025       7.82920141E-03
  0.550000012       7.82900583E-03
  0.550999999       7.82883167E-03
  0.551999986       7.82868918E-03
  0.552999973       7.82857649E-03
  0.554000020       7.82848615E-03
  0.555000007       7.82840513E-03
  0.555999994       7.82831758E-03
  0.556999981       7.82821514E-03
  0.558000028       7.82809313E-03
  0.559000015       7.82795809E-03
  0.560000002       7.82782212E-03
  0.560999990       7.82770291E-03
  0.561999977       7.82761443E-03
  0.563000023       7.82756694E-03
  0.564000010       7.82756135E-03
  0.564999998       7.82759115E-03
  0.565999985       7.82764331E-03
  0.566999972       7.82770291E-03
  0.568000019       7.82775972E-03
  0.569000006       7.82780722E-03
  0.569999993       7.82784820E-03
  0.570999980       7.82789104E-03
  0.572000027       7.82794785E-03
  0.573000014       7.82803074E-03
  0.574000001       7.82814901E-03
  0.574999988       7.82830361E-03
  0.575999975       7.82849174E-03
  0.577000022       7.82870315E-03
  0.578000009       7.82892853E-03
  0.578999996       7.82915950E-03
  0.579999983       7.82938953E-03
  0.580999970       7.82961957E-03
  0.582000017       7.82985240E-03
  0.583000004       7.83009548E-03
  0.583999991       7.83035532E-03
  0.584999979       7.83063564E-03
  0.586000025       7.83093646E-03
  0.587000012       7.83125404E-03
  0.588000000       7.83158187E-03
  0.588999987       7.83191249E-03
  0.589999974       7.83223752E-03
  0.591000021       7.83255324E-03
  0.592000008       7.83285964E-03
  0.592999995       7.83315767E-03
  0.593999982       7.83345196E-03
  0.595000029       7.83374812E-03
  0.596000016       7.83404894E-03
  0.597000003       7.83435442E-03
  0.597999990       7.83466361E-03
  0.598999977       7.83497095E-03
  0.600000024       7.83527084E-03
  0.601000011       7.83555582E-03
  0.601999998       7.83582032E-03
  0.602999985       7.83606246E-03
  0.603999972       7.83628225E-03
  0.605000019       7.83648156E-03
  0.606000006       7.83666503E-03
  0.606999993       7.83683732E-03
  0.607999980       7.83700403E-03
  0.609000027       7.83716701E-03
  0.610000014       7.83732440E-03
  0.611000001       7.83747435E-03
  0.611999989       7.83761032E-03
  0.612999976       7.83772767E-03
  0.614000022       7.83782173E-03
  0.615000010       7.83789158E-03
  0.615999997       7.83793814E-03
  0.616999984       7.83796608E-03
  0.617999971       7.83798099E-03
  0.619000018       7.83798844E-03
  0.620000005       7.83799216E-03
  0.620999992       7.83799216E-03
  0.621999979       7.83798750E-03
  0.623000026       7.83797354E-03
  0.624000013       7.83794560E-03
  0.625000000       7.83789903E-03
  0.625999987       7.83783197E-03
  0.626999974       7.83774722E-03
  0.628000021       7.83764943E-03
  0.629000008       7.83754699E-03
  0.629999995       7.83744827E-03
  0.630999982       7.83735886E-03
  0.632000029       7.83728156E-03
  0.633000016       7.83721544E-03
  0.634000003       7.83715770E-03
  0.634999990       7.83710182E-03
  0.635999978       7.83704035E-03
  0.637000024       7.83697050E-03
  0.638000011       7.83689134E-03
  0.638999999       7.83680473E-03
  0.639999986       7.83671811E-03
  0.640999973       7.83663709E-03
  0.642000020       7.83656910E-03
  0.643000007       7.83651974E-03
  0.643999994       7.83649087E-03
  0.644999981       7.83648062E-03
  0.646000028       7.83648528E-03
  0.647000015       7.83649925E-03
  0.648000002       7.83651602E-03
  0.648999989       7.83653185E-03
  0.649999976       7.83654582E-03
  0.651000023       7.83655886E-03
  0.652000010       7.83657562E-03
  0.652999997       7.83659983E-03
  0.653999984       7.83663802E-03
  0.654999971       7.83669110E-03
  0.656000018       7.83676095E-03
  0.657000005       7.83684384E-03
  0.657999992       7.83693697E-03
  0.658999979       7.83703569E-03
  0.660000026       7.83713628E-03
  0.661000013       7.83723593E-03
  0.662000000       7.83733372E-03
  0.662999988       7.83742964E-03
  0.663999975       7.83752743E-03
  0.665000021       7.83762895E-03
  0.666000009       7.83773698E-03
  0.666999996       7.83785246E-03
  0.667999983       7.83797260E-03
  0.669000030       7.83809461E-03
  0.670000017       7.83821475E-03
  0.671000004       7.83832930E-03
  0.671999991       7.83843454E-03
  0.672999978       7.83852860E-03
  0.674000025       7.83861428E-03
  0.675000012       7.83869438E-03
  0.675999999       7.83877540E-03
  0.676999986       7.83886202E-03
  0.677999973       7.83895608E-03
  0.679000020       7.83905946E-03
  0.680000007       7.83916749E-03
  0.680999994       7.83927459E-03
  0.681999981       7.83937424E-03
  0.683000028       7.83945806E-03
  0.684000015       7.83952326E-03
  0.685000002       7.83956982E-03
  0.685999990       7.83960149E-03
  0.686999977       7.83962570E-03
  0.688000023       7.83964992E-03
  0.689000010       7.83967879E-03
  0.689999998       7.83971325E-03
  0.690999985       7.83975143E-03
  0.691999972       7.83978403E-03
  0.693000019       7.83980358E-03
  0.694000006       7.83980172E-03
  0.694999993       7.83977564E-03
  0.695999980       7.83972722E-03