 -0.159999996       0.00000000    
 -0.158999994       0.00000000    
 -0.158000007       0.00000000    
 -0.157000005       0.00000000    
 -0.156000003       0.00000000    
 -0.155000001       0.00000000    
 -0.153999999       5.24692648E-24
 -0.152999997       3.82051395E-23
 -0.151999995       1.10544997E-22
 -0.150999993       5.01416968E-23
 -0.150000006      -7.87467209E-22
 -0.149000004      -3.33887153E-21
 -0.148000002      -6.86929070E-21
 -0.147000000      -4.15233722E-21
 -0.145999998       2.45415812E-20
 -0.144999996       1.11789880E-19
 -0.143999994       2.87070214E-19
 -0.143000007       5.38954026E-19
 -0.142000005       7.69027644E-19
 -0.141000003       7.77628978E-19
 -0.140000001       3.30057705E-19
 -0.138999999      -6.92433666E-19
 -0.137999997      -2.16324460E-18
 -0.136999995      -3.83429109E-18
 -0.136000007      -5.94603356E-18
 -0.135000005      -1.02553389E-17
 -0.134000003      -2.07334094E-17
 -0.133000001      -4.23559355E-17
 -0.131999999      -7.60892741E-17
 -0.130999997      -1.09342279E-16
 -0.129999995      -1.04561737E-16
 -0.128999993       6.02759399E-18
 -0.128000006       3.06561923E-16
 -0.127000004       8.51299452E-16
 -0.126000002       1.58233314E-15
 -0.125000000       2.23005479E-15
 -0.123999998       2.24734506E-15
 -0.123000003       8.57732456E-16
 -0.122000001      -2.69765636E-15
 -0.120999999      -8.67424673E-15
 -0.119999997      -1.61677787E-14
 -0.119000003      -2.25168158E-14
 -0.118000001      -2.31545841E-14
 -0.116999999      -1.23728093E-14
 -0.115999997       1.46634803E-14
 -0.115000002       5.87077045E-14
 -0.114000000       1.12743433E-13
 -0.112999998       1.59289574E-13
 -0.112000003       1.70728300E-13
 -0.111000001       1.14632276E-13
 -0.109999999      -3.49538649E-14
 -0.108999997      -2.81434571E-13
 -0.108000003      -5.88832585E-13
 -0.107000001      -8.71075673E-13
 -0.105999999      -9.95741467E-13
 -0.104999997      -8.09338057E-13
 -0.104000002      -1.86245306E-13
 -0.103000000       9.05057821E-13
 -0.101999998       2.33525178E-12
 -0.101000004       3.77270611E-12
 -0.100000001       4.69644939E-12
  -9.89999995E-02   4.48648323E-12
  -9.79999974E-02   2.59637797E-12
  -9.70000029E-02  -1.21503166E-12
  -9.60000008E-02  -6.64826787E-12
  -9.49999988E-02  -1.27057436E-11
  -9.39999968E-02  -1.77019042E-11
  -9.30000022E-02  -1.95104419E-11
  -9.20000002E-02  -1.60653643E-11
  -9.09999982E-02  -6.05366668E-12
  -9.00000036E-02   1.03510195E-11
  -8.90000015E-02   3.09350601E-11
  -8.79999995E-02   5.13163054E-11
  -8.69999975E-02   6.54367532E-11
  -8.60000029E-02   6.67450192E-11
  -8.50000009E-02   4.99455130E-11
  -8.39999989E-02   1.29767941E-11
  -8.29999968E-02  -4.12948911E-11
  -8.20000023E-02  -1.04253210E-10
  -8.10000002E-02  -1.62082986E-10
  -7.99999982E-02  -1.97940289E-10
  -7.90000036E-02  -1.95587546E-10
  -7.80000016E-02  -1.43881143E-10
  -7.69999996E-02  -4.11023819E-11
  -7.59999976E-02   1.02082870E-10
  -7.50000030E-02   2.62160654E-10
  -7.40000010E-02   4.05503270E-10
  -7.29999989E-02   4.94296715E-10
  -7.19999969E-02   4.94807417E-10
  -7.10000023E-02   3.86353061E-10
  -7.00000003E-02   1.68853265E-10
  -6.89999983E-02  -1.33174125E-10
  -6.80000037E-02  -4.71758965E-10
  -6.70000017E-02  -7.82310661E-10
  -6.59999996E-02  -9.95345695E-10
  -6.49999976E-02  -1.05100628E-09
  -6.40000030E-02  -9.13325027E-10
  -6.30000010E-02  -5.80897441E-10
  -6.19999990E-02  -9.11405534E-11
  -6.10000007E-02   4.83430129E-10
  -5.99999987E-02   1.04672426E-09
  -5.90000004E-02   1.49639023E-09
  -5.79999983E-02   1.74344694E-09
  -5.70000000E-02   1.73006642E-09
  -5.60000017E-02   1.44161350E-09
  -5.49999997E-02   9.10263975E-10
  -5.40000014E-02   2.09403161E-10
  -5.29999994E-02  -5.59903679E-10
  -5.20000011E-02  -1.28730304E-09
  -5.09999990E-02  -1.87232252E-09
  -5.00000007E-02  -2.24022600E-09
  -4.89999987E-02  -2.35145037E-09
  -4.80000004E-02  -2.20323582E-09
  -4.69999984E-02  -1.82403448E-09
  -4.60000001E-02  -1.26300759E-09
  -4.50000018E-02  -5.77940695E-10
  -4.39999998E-02   1.75013004E-10
  -4.30000015E-02   9.47203094E-10
  -4.19999994E-02   1.69792413E-09
  -4.10000011E-02   2.39014630E-09
  -3.99999991E-02   2.98376257E-09
  -3.90000008E-02   3.42944073E-09
  -3.79999988E-02   3.66616160E-09
  -3.70000005E-02   3.62463393E-09
  -3.59999985E-02   3.23724669E-09
  -3.50000001E-02   2.45340637E-09
  -3.40000018E-02   1.25744226E-09
  -3.29999998E-02  -3.14853449E-10
  -3.20000015E-02  -2.16529772E-09
  -3.09999995E-02  -4.13166346E-09
  -2.99999993E-02  -5.99755134E-09
  -2.89999992E-02  -7.51404361E-09
  -2.80000009E-02  -8.43115000E-09
  -2.70000007E-02  -8.53497362E-09
  -2.60000005E-02  -7.68495934E-09
  -2.50000004E-02  -5.84491522E-09
  -2.40000002E-02  -3.10187565E-09
  -2.30000000E-02   3.31611433E-10
  -2.19999999E-02   4.13373691E-09
  -2.09999997E-02   7.90712296E-09
  -1.99999996E-02   1.12257457E-08
  -1.89999994E-02   1.36883136E-08
  -1.79999992E-02   1.49698920E-08
  -1.70000009E-02   1.48636436E-08
  -1.60000008E-02   1.33062557E-08
  -1.49999997E-02   1.03836362E-08
  -1.40000004E-02   6.31719566E-09
  -1.30000003E-02   1.43463275E-09
  -1.20000001E-02  -3.86826615E-09
  -1.09999999E-02  -9.16731491E-09
  -9.99999978E-03  -1.40445469E-08
  -8.99999961E-03  -1.81137345E-08
  -8.00000038E-03  -2.10362501E-08
  -7.00000022E-03  -2.25300330E-08
  -6.00000005E-03  -2.23766463E-08
  -4.99999989E-03  -2.04317345E-08
  -4.00000019E-03  -1.66424314E-08
  -3.00000003E-03  -1.10718341E-08
  -2.00000009E-03  -3.92645916E-09
  -1.00000005E-03   4.42103021E-09
   0.00000000       1.34234828E-08
   1.00000005E-03   2.23743140E-08
   2.00000009E-03   3.04515879E-08
   3.00000003E-03   3.67912421E-08
   4.00000019E-03   4.05830427E-08
   4.99999989E-03   4.11768326E-08
   6.00000005E-03   3.81827796E-08
   7.00000022E-03   3.15483675E-08
   8.00000038E-03   2.15974865E-08
   8.99999961E-03   9.02260400E-09
   9.99999978E-03  -5.17147480E-09
   1.09999999E-02  -1.97657180E-08
   1.20000001E-02  -3.34535137E-08
   1.30000003E-02  -4.49781545E-08
   1.40000004E-02  -5.32622870E-08
   1.49999997E-02  -5.75126435E-08
   1.60000008E-02  -5.72882968E-08
   1.70000009E-02  -5.25271062E-08
   1.79999992E-02  -4.35320828E-08
   1.89999994E-02  -3.09251398E-08
   1.99999996E-02  -1.55795981E-08
   2.09999997E-02   1.45596302E-09
   2.19999999E-02   1.90315195E-08
   2.30000000E-02   3.59597294E-08
   2.40000002E-02   5.10680103E-08
   2.50000004E-02   6.32411528E-08
   2.60000005E-02   7.14606188E-08
   2.70000007E-02   7.48479962E-08
   2.80000009E-02   7.27184428E-08
   2.89999992E-02   6.46456542E-08
   2.99999993E-02   5.05338136E-08
   3.09999995E-02   3.06854773E-08
   3.20000015E-02   5.84948578E-09
   3.29999998E-02  -2.27687522E-08
   3.40000018E-02  -5.35497904E-08
   3.50000001E-02  -8.45637302E-08
   3.59999985E-02  -1.13732817E-07
   3.70000005E-02  -1.39039130E-07
   3.79999988E-02  -1.58752798E-07
   3.90000008E-02  -1.71649049E-07
   3.99999991E-02  -1.77180794E-07
   4.10000011E-02  -1.75578720E-07
   4.19999994E-02  -1.67860748E-07
   4.30000015E-02  -1.55747912E-07
   4.39999998E-02  -1.41498276E-07
   4.50000018E-02  -1.27684089E-07
   4.60000001E-02  -1.16945380E-07
   4.69999984E-02  -1.11755575E-07
   4.80000004E-02  -1.14229898E-07
   4.89999987E-02  -1.25998127E-07
   5.00000007E-02  -1.48150662E-07
   5.09999990E-02  -1.81254109E-07
   5.20000011E-02  -2.25422383E-07
   5.29999994E-02  -2.80422626E-07
   5.40000014E-02  -3.45793836E-07
   5.49999997E-02  -4.20958685E-07
   5.60000017E-02  -5.05315143E-07
   5.70000000E-02  -5.98302165E-07
   5.79999983E-02  -6.99441216E-07
   5.90000004E-02  -8.08361449E-07
   5.99999987E-02  -9.24820142E-07
   6.10000007E-02  -1.04872890E-06
   6.19999990E-02  -1.18019580E-06
   6.30000010E-02  -1.31958564E-06
   6.40000030E-02  -1.46759680E-06
   6.49999976E-02  -1.62534479E-06
   6.59999996E-02  -1.79443930E-06
   6.70000017E-02  -1.97703707E-06
   6.80000037E-02  -2.17585580E-06
   6.89999983E-02  -2.39413930E-06
   7.00000003E-02  -2.63557035E-06
   7.10000023E-02  -2.90413800E-06
   7.19999969E-02  -3.20397817E-06
   7.29999989E-02  -3.53920723E-06
   7.40000010E-02  -3.91377716E-06
   7.50000030E-02  -4.33137620E-06
   7.59999976E-02  -4.79538949E-06
   7.69999996E-02  -5.30892703E-06
   7.80000016E-02  -5.87491422E-06
   7.90000036E-02  -6.49622916E-06
   7.99999982E-02  -7.17586272E-06
   8.10000002E-02  -7.91708226E-06
   8.20000023E-02  -8.72357941E-06
   8.29999968E-02  -9.59958561E-06
   8.39999989E-02  -1.05499521E-05
   8.50000009E-02  -1.15801977E-05
   8.60000029E-02  -1.26965269E-05
   8.69999975E-02  -1.39058257E-05
   8.79999995E-02  -1.52156408E-05
   8.90000015E-02  -1.66341488E-05
   9.00000036E-02  -1.81701107E-05
   9.09999982E-02  -1.98328125E-05
   9.20000002E-02  -2.16320022E-05
   9.30000022E-02  -2.35778134E-05
   9.39999968E-02  -2.56807070E-05
   9.49999988E-02  -2.79514079E-05
   9.60000008E-02  -3.04008863E-05
   9.70000029E-02  -3.30403564E-05
   9.79999974E-02  -3.58813195E-05
   9.89999995E-02  -3.89356246E-05
  0.100000001      -4.22155608E-05
  0.101000004      -4.57339593E-05
  0.101999998      -4.95043059E-05
  0.103000000      -5.35408144E-05
  0.104000002      -5.78585386E-05
  0.104999997      -6.24734239E-05
  0.105999999      -6.74023686E-05
  0.107000001      -7.26632206E-05
  0.108000003      -7.82748102E-05
  0.108999997      -8.42568625E-05
  0.109999999      -9.06299392E-05
  0.111000001      -9.74152936E-05
  0.112000003      -1.04634746E-04
  0.112999998      -1.12310532E-04
  0.114000000      -1.20465156E-04
  0.115000002      -1.29121370E-04
  0.115999997      -1.38302130E-04
  0.116999999      -1.48030638E-04
  0.118000001      -1.58330542E-04
  0.119000003      -1.69225998E-04
  0.119999997      -1.80741903E-04
  0.120999999      -1.92903943E-04
  0.122000001      -2.05738630E-04
  0.123000003      -2.19273294E-04
  0.123999998      -2.33535902E-04
  0.125000000      -2.48554832E-04
  0.126000002      -2.64358736E-04
  0.127000004      -2.80976208E-04
  0.128000006      -2.98435742E-04
  0.128999993      -3.16765538E-04
  0.129999995      -3.35993536E-04
  0.130999997      -3.56147386E-04
  0.131999999      -3.77254648E-04
  0.133000001      -3.99342796E-04
  0.134000003      -4.22439334E-04
  0.135000005      -4.46571998E-04
  0.136000007      -4.71768581E-04
  0.136999995      -4.98057168E-04
  0.137999997      -5.25465875E-04
  0.138999999      -5.54022903E-04
  0.140000001      -5.83756249E-04
  0.141000003      -6.14693563E-04
  0.142000005      -6.46862027E-04
  0.143000007      -6.80287776E-04
  0.143999994      -7.14996015E-04
  0.144999996      -7.51010492E-04
  0.145999998      -7.88353500E-04
  0.147000000      -8.27045762E-04
  0.148000002      -8.67106603E-04
  0.149000004      -9.08553717E-04
  0.150000006      -9.51403636E-04
  0.150999993      -9.95671726E-04
  0.151999995      -1.04137266E-03
  0.152999997      -1.08852005E-03
  0.153999999      -1.13712705E-03
  0.155000001      -1.18720566E-03
  0.156000003      -1.23876776E-03
  0.157000005      -1.29182369E-03
  0.158000007      -1.34638301E-03
  0.158999994      -1.40245364E-03
  0.159999996      -1.46004208E-03
  0.160999998      -1.51915289E-03
  0.162000000      -1.57978875E-03
  0.163000003      -1.64195010E-03
  0.164000005      -1.70563511E-03
  0.165000007      -1.77083979E-03
  0.165999994      -1.83755835E-03
  0.166999996      -1.90578261E-03
  0.167999998      -1.97550328E-03
  0.169000000      -2.04670895E-03
  0.170000002      -2.11938750E-03
  0.171000004      -2.19352543E-03
  0.172000006      -2.26910785E-03
  0.172999993      -2.34611938E-03
  0.173999995      -2.42454256E-03
  0.174999997      -2.50435877E-03
  0.175999999      -2.58554728E-03
  0.177000001      -2.66808597E-03
  0.178000003      -2.75194994E-03
  0.179000005      -2.83711194E-03
  0.180000007      -2.92354263E-03
  0.180999994      -3.01121082E-03
  0.181999996      -3.10008344E-03
  0.182999998      -3.19012580E-03
  0.184000000      -3.28130252E-03
  0.185000002      -3.37357656E-03
  0.186000004      -3.46691022E-03
  0.187000006      -3.56126507E-03
  0.187999994      -3.65660223E-03
  0.188999996      -3.75288096E-03
  0.189999998      -3.85005935E-03
  0.191000000      -3.94809432E-03
  0.192000002      -4.04694071E-03
  0.193000004      -4.14655032E-03
  0.194000006      -4.24687332E-03
  0.194999993      -4.34785662E-03
  0.195999995      -4.44944482E-03
  0.196999997      -4.55157971E-03
  0.197999999      -4.65420075E-03
  0.199000001      -4.75724554E-03
  0.200000003      -4.86064935E-03
  0.201000005      -4.96434653E-03
  0.202000007      -5.06826909E-03
  0.202999994      -5.17234812E-03
  0.203999996      -5.27651142E-03
  0.204999998      -5.38068591E-03
  0.206000000      -5.48479520E-03
  0.207000002      -5.58876060E-03
  0.208000004      -5.69249969E-03
  0.209000006      -5.79592679E-03
  0.209999993      -5.89895248E-03
  0.210999995      -6.00148458E-03
  0.211999997      -6.10342622E-03
  0.213000000      -6.20467775E-03
  0.214000002      -6.30513439E-03
  0.215000004      -6.40468765E-03
  0.216000006      -6.50322484E-03
  0.216999993      -6.60062814E-03
  0.217999995      -6.69677602E-03
  0.218999997      -6.79154089E-03
  0.219999999      -6.88479142E-03
  0.221000001      -6.97639072E-03
  0.222000003      -7.06619723E-03
  0.223000005      -7.15406379E-03
  0.224000007      -7.23983953E-03
  0.224999994      -7.32336799E-03
  0.225999996      -7.40448711E-03
  0.226999998      -7.48303020E-03
  0.228000000      -7.55882636E-03
  0.229000002      -7.63169862E-03
  0.230000004      -7.70146586E-03
  0.231000006      -7.76794087E-03
  0.231999993      -7.83093274E-03
  0.232999995      -7.89024308E-03
  0.233999997      -7.94567168E-03
  0.234999999      -7.99700990E-03
  0.236000001      -8.04404542E-03
  0.237000003      -8.08656216E-03
  0.238000005      -8.12433753E-03
  0.238999993      -8.15714523E-03
  0.239999995      -8.18475615E-03
  0.240999997      -8.20693653E-03
  0.241999999      -8.22345074E-03
  0.243000001      -8.23406037E-03
  0.244000003      -8.23852513E-03
  0.245000005      -8.23660381E-03
  0.246000007      -8.22805334E-03
  0.246999994      -8.21262971E-03
  0.247999996      -8.19008891E-03
  0.248999998      -8.16018693E-03
  0.250000000      -8.12268350E-03
  0.250999987      -8.07733741E-03
  0.252000004      -8.02391302E-03
  0.252999991      -7.96217658E-03
  0.254000008      -7.89189991E-03
  0.254999995      -7.81286042E-03
  0.256000012      -7.72484299E-03
  0.256999999      -7.62763899E-03
  0.257999986      -7.52104912E-03
  0.259000003      -7.40488339E-03
  0.259999990      -7.27896113E-03
  0.261000007      -7.14311423E-03
  0.261999995      -6.99718669E-03
  0.263000011      -6.84103509E-03
  0.263999999      -6.67453045E-03
  0.264999986      -6.49755960E-03
  0.266000003      -6.31002570E-03
  0.266999990      -6.11185003E-03
  0.268000007      -5.90297254E-03
  0.268999994      -5.68335177E-03
  0.270000011      -5.45297004E-03
  0.270999998      -5.21182967E-03
  0.272000015      -4.95995721E-03
  0.273000002      -4.69740340E-03
  0.273999989      -4.42424417E-03
  0.275000006      -4.14058054E-03
  0.275999993      -3.84653965E-03
  0.277000010      -3.54227563E-03
  0.277999997      -3.22796963E-03
  0.279000014      -2.90382979E-03
  0.280000001      -2.57009291E-03
  0.280999988      -2.22702324E-03
  0.282000005      -1.87491393E-03
  0.282999992      -1.51408650E-03
  0.284000009      -1.14489114E-03
  0.284999996      -7.67706486E-04
  0.286000013      -3.82939645E-04
  0.287000000       8.97431619E-06
  0.287999988       4.07572777E-04
  0.289000005       8.12366139E-04
  0.289999992       1.22283876E-03
  0.291000009       1.63844984E-03
  0.291999996       2.05863407E-03
  0.293000013       2.48280354E-03
  0.294000000       2.91034882E-03
  0.294999987       3.34064034E-03
  0.296000004       3.77302966E-03
  0.296999991       4.20685206E-03
  0.298000008       4.64142719E-03
  0.298999995       5.07606100E-03
  0.300000012       5.51004894E-03
  0.300999999       5.94267622E-03
  0.301999986       6.37321966E-03
  0.303000003       6.80095144E-03
  0.303999990       7.22514139E-03
  0.305000007       7.64505751E-03
  0.305999994       8.05997103E-03
  0.307000011       8.46915413E-03
  0.307999998       8.87188874E-03
  0.308999985       9.26746242E-03
  0.310000002       9.65517573E-03
  0.310999990       1.00343414E-02
  0.312000006       1.04042888E-02
  0.312999994       1.07643669E-02
  0.314000010       1.11139454E-02
  0.314999998       1.14524160E-02
  0.316000015       1.17791966E-02
  0.317000002       1.20937340E-02
  0.317999989       1.23955021E-02
  0.319000006       1.26840062E-02
  0.319999993       1.29587846E-02
  0.321000010       1.32194106E-02
  0.321999997       1.34654911E-02
  0.323000014       1.36966705E-02
  0.324000001       1.39126321E-02
  0.324999988       1.41130975E-02
  0.326000005       1.42978290E-02
  0.326999992       1.44666322E-02
  0.328000009       1.46193542E-02
  0.328999996       1.47558823E-02
  0.330000013       1.48761477E-02
  0.331000000       1.49801224E-02
  0.331999987       1.50678195E-02
  0.333000004       1.51392939E-02
  0.333999991       1.51946405E-02
  0.335000008       1.52339945E-02
  0.335999995       1.52575290E-02
  0.337000012       1.52654583E-02
  0.338000000       1.52580319E-02
  0.338999987       1.52355386E-02
  0.340000004       1.51983006E-02
  0.340999991       1.51466737E-02
  0.342000008       1.50810461E-02
  0.342999995       1.50018344E-02
  0.344000012       1.49094826E-02
  0.344999999       1.48044592E-02
  0.345999986       1.46872569E-02
  0.347000003       1.45583889E-02
  0.347999990       1.44183859E-02
  0.349000007       1.42677976E-02
  0.349999994       1.41071863E-02
  0.351000011       1.39371296E-02
  0.351999998       1.37582123E-02
  0.352999985       1.35710286E-02
  0.354000002       1.33761782E-02
  0.354999989       1.31742628E-02
  0.356000006       1.29658878E-02
  0.356999993       1.27516557E-02
  0.358000010       1.25321662E-02
  0.358999997       1.23080155E-02
  0.360000014       1.20797912E-02
  0.361000001       1.18480744E-02
  0.361999989       1.16134332E-02
  0.363000005       1.13764247E-02
  0.363999993       1.11375907E-02
  0.365000010       1.08974595E-02
  0.365999997       1.06565403E-02
  0.367000014       1.04153277E-02
  0.368000001       1.01742959E-02
  0.368999988       9.93389916E-03
  0.370000005       9.69457254E-03
  0.370999992       9.45672859E-03
  0.372000009       9.22076125E-03
  0.372999996       8.98703840E-03
  0.374000013       8.75590649E-03
  0.375000000       8.52769054E-03
  0.375999987       8.30268953E-03
  0.377000004       8.08118191E-03
  0.377999991       7.86342099E-03
  0.379000008       7.64963729E-03
  0.379999995       7.44003849E-03
  0.381000012       7.23480945E-03
  0.381999999       7.03411316E-03
  0.382999986       6.83809305E-03
  0.384000003       6.64687110E-03
  0.384999990       6.46055071E-03
  0.386000007       6.27921661E-03
  0.386999995       6.10293401E-03
  0.388000011       5.93175180E-03
  0.388999999       5.76570118E-03
  0.389999986       5.60479611E-03
  0.391000003       5.44903567E-03
  0.391999990       5.29840309E-03
  0.393000007       5.15286857E-03
  0.393999994       5.01239020E-03
  0.395000011       4.87691397E-03
  0.395999998       4.74637561E-03
  0.397000015       4.62070247E-03
  0.398000002       4.49981261E-03
  0.398999989       4.38361615E-03
  0.400000006       4.27201623E-03
  0.400999993       4.16490948E-03
  0.402000010       4.06218739E-03
  0.402999997       3.96373495E-03
  0.404000014       3.86943552E-03
  0.405000001       3.77916754E-03
  0.405999988       3.69280833E-03
  0.407000005       3.61023308E-03
  0.407999992       3.53131606E-03
  0.409000009       3.45593062E-03
  0.409999996       3.38394963E-03
  0.411000013       3.31524620E-03
  0.412000000       3.24969343E-03
  0.412999988       3.18716606E-03
  0.414000005       3.12753976E-03
  0.414999992       3.07069207E-03
  0.416000009       3.01650376E-03
  0.416999996       2.96485797E-03
  0.418000013       2.91564083E-03
  0.419000000       2.86874152E-03
  0.419999987       2.82405247E-03
  0.421000004       2.78146868E-03
  0.421999991       2.74088816E-03
  0.423000008       2.70221173E-03
  0.423999995       2.66534276E-03
  0.425000012       2.63018790E-03
  0.425999999       2.59665726E-03
  0.426999986       2.56466470E-03
  0.428000003       2.53412710E-03
  0.428999990       2.50496529E-03
  0.430000007       2.47710361E-03
  0.430999994       2.45046988E-03
  0.432000011       2.42499518E-03
  0.432999998       2.40061432E-03
  0.433999985       2.37726513E-03
  0.435000002       2.35488871E-03
  0.435999990       2.33342848E-03
  0.437000006       2.31283181E-03
  0.437999994       2.29304796E-03
  0.439000010       2.27402872E-03
  0.439999998       2.25572870E-03
  0.441000015       2.23810482E-03
  0.442000002       2.22111610E-03
  0.442999989       2.20472505E-03
  0.444000006       2.18889583E-03
  0.444999993       2.17359606E-03
  0.446000010       2.15879548E-03
  0.446999997       2.14446662E-03
  0.448000014       2.13058386E-03
  0.449000001       2.11712252E-03
  0.449999988       2.10405933E-03
  0.451000005       2.09137169E-03
  0.451999992       2.07903772E-03
  0.453000009       2.06703646E-03
  0.453999996       2.05534813E-03
  0.455000013       2.04395456E-03
  0.456000000       2.03283946E-03
  0.456999987       2.02198862E-03
  0.458000004       2.01138970E-03
  0.458999991       2.00103200E-03
  0.460000008       1.99090573E-03
  0.460999995       1.98100205E-03
  0.462000012       1.97131233E-03
  0.463000000       1.96182821E-03
  0.463999987       1.95254164E-03
  0.465000004       1.94344507E-03
  0.465999991       1.93453103E-03
  0.467000008       1.92579278E-03
  0.467999995       1.91722426E-03
  0.469000012       1.90881989E-03
  0.469999999       1.90057477E-03
  0.470999986       1.89248403E-03
  0.472000003       1.88454334E-03
  0.472999990       1.87674840E-03
  0.474000007       1.86909537E-03
  0.474999994       1.86158053E-03
  0.476000011       1.85420050E-03
  0.476999998       1.84695167E-03
  0.477999985       1.83983101E-03
  0.479000002       1.83283526E-03
  0.479999989       1.82596082E-03
  0.481000006       1.81920372E-03
  0.481999993       1.81256013E-03
  0.483000010       1.80602598E-03
  0.483999997       1.79959752E-03
  0.485000014       1.79327151E-03
  0.486000001       1.78704597E-03
  0.486999989       1.78091915E-03
  0.488000005       1.77489058E-03
  0.488999993       1.76895992E-03
  0.490000010       1.76312693E-03
  0.490999997       1.75739103E-03
  0.492000014       1.75175082E-03
  0.493000001       1.74620387E-03
  0.493999988       1.74074678E-03
  0.495000005       1.73537561E-03
  0.495999992       1.73008593E-03
  0.497000009       1.72487355E-03
  0.497999996       1.71973475E-03
  0.499000013       1.71466672E-03
  0.500000000       1.70966785E-03
  0.500999987       1.70473731E-03
  0.501999974       1.69987569E-03
  0.503000021       1.69508392E-03
  0.504000008       1.69036340E-03
  0.504999995       1.68571563E-03
  0.505999982       1.68114121E-03
  0.507000029       1.67664036E-03
  0.508000016       1.67221215E-03
  0.509000003       1.66785496E-03
  0.509999990       1.66356645E-03
  0.510999978       1.65934395E-03
  0.512000024       1.65518501E-03
  0.513000011       1.65108789E-03
  0.513999999       1.64705154E-03
  0.514999986       1.64307572E-03
  0.515999973       1.63916114E-03
  0.517000020       1.63530873E-03
  0.518000007       1.63151952E-03
  0.518999994       1.62779412E-03
  0.519999981       1.62413274E-03
  0.521000028       1.62053457E-03
  0.522000015       1.61699834E-03
  0.523000002       1.61352265E-03
  0.523999989       1.61010574E-03
  0.524999976       1.60674658E-03
  0.526000023       1.60344411E-03
  0.527000010       1.60019775E-03
  0.527999997       1.59700692E-03
  0.528999984       1.59387081E-03
  0.529999971       1.59078836E-03
  0.531000018       1.58775784E-03
  0.532000005       1.58477691E-03
  0.532999992       1.58184336E-03
  0.533999979       1.57895498E-03
  0.535000026       1.57611025E-03
  0.536000013       1.57330825E-03
  0.537000000       1.57054886E-03
  0.537999988       1.56783208E-03
  0.538999975       1.56515837E-03
  0.540000021       1.56252750E-03
  0.541000009       1.55993877E-03
  0.541999996       1.55739079E-03
  0.542999983       1.55488146E-03
  0.544000030       1.55240810E-03
  0.545000017       1.54996850E-03
  0.546000004       1.54756056E-03
  0.546999991       1.54518289E-03
  0.547999978       1.54283515E-03
  0.549000025       1.54051709E-03
  0.550000012       1.53822906E-03
  0.550999999       1.53597153E-03
  0.551999986       1.53374474E-03
  0.552999973       1.53154868E-03
  0.554000020       1.52938277E-03
  0.555000007       1.52724620E-03
  0.555999994       1.52513827E-03
  0.556999981       1.52305805E-03
  0.558000028       1.52100471E-03
  0.559000015       1.51897746E-03
  0.560000002       1.51697558E-03
  0.560999990       1.51499826E-03
  0.561999977       1.51304493E-03
  0.563000023       1.51111512E-03
  0.564000010       1.50920893E-03
  0.564999998       1.50732661E-03
  0.565999985       1.50546920E-03
  0.566999972       1.50363811E-03
  0.568000019       1.50183530E-03
  0.569000006       1.50006253E-03
  0.569999993       1.49832177E-03
  0.570999980       1.49661384E-03
  0.572000027       1.49493921E-03
  0.573000014       1.49329717E-03
  0.574000001       1.49168633E-03
  0.574999988       1.49010448E-03
  0.575999975       1.48854929E-03
  0.577000022       1.48701831E-03
  0.578000009       1.48550910E-03
  0.578999996       1.48401991E-03
  0.579999983       1.48254959E-03
  0.580999970       1.48109731E-03
  0.582000017       1.47966319E-03
  0.583000004       1.47824734E-03
  0.583999991       1.47685071E-03
  0.584999979       1.47547410E-03
  0.586000025       1.47411821E-03
  0.587000012       1.47278386E-03
  0.588000000       1.47147116E-03
  0.588999987       1.47017988E-03
  0.589999974       1.46890967E-03
  0.591000021       1.46765949E-03
  0.592000008       1.46642816E-03
  0.592999995       1.46521465E-03
  0.593999982       1.46401778E-03
  0.595000029       1.46283652E-03
  0.596000016       1.46166969E-03
  0.597000003       1.46051636E-03
  0.597999990       1.45937514E-03
  0.598999977       1.45824486E-03
  0.600000024       1.45712413E-03
  0.601000011       1.45601144E-03
  0.601999998       1.45490561E-03
  0.602999985       1.45380630E-03
  0.603999972       1.45271362E-03
  0.605000019       1.45162852E-03
  0.606000006       1.45055272E-03
  0.606999993       1.44948799E-03
  0.607999980       1.44843606E-03
  0.609000027       1.44739845E-03
  0.610000014       1.44637586E-03
  0.611000001       1.44536817E-03
  0.611999989       1.44437468E-03
  0.612999976       1.44339423E-03
  0.614000022       1.44242565E-03
  0.615000010       1.44146825E-03
  0.615999997       1.44052168E-03
  0.616999984       1.43958628E-03
  0.617999971       1.43866299E-03
  0.619000018       1.43775262E-03
  0.620000005       1.43685588E-03
  0.620999992       1.43597310E-03
  0.621999979       1.43510429E-03
  0.623000026       1.43424852E-03
  0.624000013       1.43340474E-03
  0.625000000       1.43257168E-03
  0.625999987       1.43174769E-03
  0.626999974       1.43093162E-03
  0.628000021       1.43012230E-03
  0.629000008       1.42931903E-03
  0.629999995       1.42852112E-03
  0.630999982       1.42772822E-03
  0.632000029       1.42694032E-03
  0.633000016       1.42615777E-03
  0.634000003       1.42538128E-03
  0.634999990       1.42461190E-03
  0.635999978       1.42385066E-03
  0.637000024       1.42309838E-03
  0.638000011       1.42235565E-03
  0.638999999       1.42162223E-03
  0.639999986       1.42089720E-03
  0.640999973       1.42017903E-03
  0.642000020       1.41946576E-03
  0.643000007       1.41875527E-03
  0.643999994       1.41804572E-03
  0.644999981       1.41733594E-03
  0.646000028       1.41662534E-03
  0.647000015       1.41591404E-03
  0.648000002       1.41520286E-03
  0.648999989       1.41449226E-03
  0.649999976       1.41378259E-03
  0.651000023       1.41307397E-03
  0.652000010       1.41236582E-03
  0.652999997       1.41165743E-03
  0.653999984       1.41094846E-03
  0.654999971       1.41023879E-03
  0.656000018       1.40952913E-03
  0.657000005       1.40882109E-03
  0.657999992       1.40811678E-03
  0.658999979       1.40741840E-03
  0.660000026       1.40672806E-03
  0.661000013       1.40604749E-03
  0.662000000       1.40537729E-03
  0.662999988       1.40471756E-03
  0.663999975       1.40406762E-03
  0.665000021       1.40342629E-03
  0.666000009       1.40279252E-03
  0.666999996       1.40216528E-03
  0.667999983       1.40154385E-03
  0.669000030       1.40092801E-03
  0.670000017       1.40031800E-03
  0.671000004       1.39971403E-03
  0.671999991       1.39911659E-03
  0.672999978       1.39852613E-03
  0.674000025       1.39794312E-03
  0.675000012       1.39736792E-03
  0.675999999       1.39680086E-03
  0.676999986       1.39624218E-03
  0.677999973       1.39569200E-03
  0.679000020       1.39515044E-03
  0.680000007       1.39461760E-03
  0.680999994       1.39409315E-03
  0.681999981       1.39357685E-03
  0.683000028       1.39306835E-03
  0.684000015       1.39256741E-03
  0.685000002       1.39207393E-03
  0.685999990       1.39158790E-03
  0.686999977       1.39110931E-03
  0.688000023       1.39063841E-03
  0.689000010       1.39017496E-03
  0.689999998       1.38971850E-03
  0.690999985       1.38926855E-03
  0.691999972       1.38882420E-03
  0.693000019       1.38838449E-03
  0.694000006       1.38794875E-03
  0.694999993       1.38751650E-03
  0.695999980       1.38708740E-03