 -0.159999996       0.00000000    
 -0.158999994       0.00000000    
 -0.158000007       0.00000000    
 -0.157000005       0.00000000    
 -0.156000003       0.00000000    
 -0.155000001       3.18310926E-20
 -0.153999999       2.11705336E-19
 -0.152999997       5.58981413E-19
 -0.151999995       6.71057316E-20
 -0.150999993      -5.15492588E-18
 -0.150000006      -2.34008006E-17
 -0.149000004      -6.52267052E-17
 -0.148000002      -1.33811565E-16
 -0.147000000      -2.07758190E-16
 -0.145999998      -2.25136196E-16
 -0.144999996      -8.73368591E-17
 -0.143999994       2.97516961E-16
 -0.143000007       9.29478793E-16
 -0.142000005       1.62585772E-15
 -0.141000003       2.00245429E-15
 -0.140000001       1.61638493E-15
 -0.138999999       3.01738044E-16
 -0.137999997      -1.41210112E-15
 -0.136999995      -2.09047414E-15
 -0.136000007       2.09692496E-16
 -0.135000005       6.65361109E-15
 -0.134000003       1.56139258E-14
 -0.133000001       2.08081114E-14
 -0.131999999       1.11751733E-14
 -0.130999997      -2.57306417E-14
 -0.129999995      -9.59166964E-14
 -0.128999993      -1.87962832E-13
 -0.128000006      -2.63231413E-13
 -0.127000004      -2.54447722E-13
 -0.126000002      -8.04510064E-14
 -0.125000000       3.18517863E-13
 -0.123999998       9.28952119E-13
 -0.123000003       1.61149783E-12
 -0.122000001       2.07494633E-12
 -0.120999999       1.90883507E-12
 -0.119999997       6.98276235E-13
 -0.119000003      -1.78054132E-12
 -0.118000001      -5.32515221E-12
 -0.116999999      -9.11589814E-12
 -0.115999997      -1.16819505E-11
 -0.115000002      -1.11308003E-11
 -0.114000000      -5.69158045E-12
 -0.112999998       5.48410145E-12
 -0.112000003       2.14565136E-11
 -0.111000001       3.88831745E-11
 -0.109999999       5.20244368E-11
 -0.108999997       5.36696729E-11
 -0.108000003       3.70677551E-11
 -0.107000001      -1.39672865E-12
 -0.105999999      -5.94286217E-11
 -0.104999997      -1.26902835E-10
 -0.104000002      -1.85835944E-10
 -0.103000000      -2.13026222E-10
 -0.101999998      -1.85512994E-10
 -0.101000004      -8.81027196E-11
 -0.100000001       7.87505061E-11
  -9.89999995E-02   2.93129715E-10
  -9.79999974E-02   5.10461895E-10
  -9.70000029E-02   6.68852751E-10
  -9.60000008E-02   7.01399050E-10
  -9.49999988E-02   5.53907198E-10
  -9.39999968E-02   2.04353756E-10
  -9.30000022E-02  -3.21107169E-10
  -9.20000002E-02  -9.41138167E-10
  -9.09999982E-02  -1.52555091E-09
  -9.00000036E-02  -1.91654181E-09
  -8.90000015E-02  -1.96255723E-09
  -8.79999995E-02  -1.55850199E-09
  -8.69999975E-02  -6.82964241E-10
  -8.60000029E-02   5.77899562E-10
  -8.50000009E-02   2.02854378E-09
  -8.39999989E-02   3.38872574E-09
  -8.29999968E-02   4.34302239E-09
  -8.20000023E-02   4.60688243E-09
  -8.10000002E-02   3.99560385E-09
  -7.99999982E-02   2.48014165E-09
  -7.90000036E-02   2.14995882E-10
  -7.80000016E-02  -2.47137955E-09
  -7.69999996E-02  -5.12515896E-09
  -7.59999976E-02  -7.24717708E-09
  -7.50000030E-02  -8.38903258E-09
  -7.40000010E-02  -8.24529689E-09
  -7.29999989E-02  -6.72183242E-09
  -7.19999969E-02  -3.96485689E-09
  -7.10000023E-02  -3.43703899E-10
  -7.00000003E-02   3.60978292E-09
  -6.89999983E-02   7.29302307E-09
  -6.80000037E-02   1.01370503E-08
  -6.70000017E-02   1.17027721E-08
  -6.59999996E-02   1.17509877E-08
  -6.49999976E-02   1.02742677E-08
  -6.40000030E-02   7.48716111E-09
  -6.30000010E-02   3.77960729E-09
  -6.19999990E-02  -3.54955509E-10
  -6.10000007E-02  -4.40166126E-09
  -5.99999987E-02  -7.90107269E-09
  -5.90000004E-02  -1.05081224E-08
  -5.79999983E-02  -1.20251071E-08
  -5.70000000E-02  -1.24061836E-08
  -5.60000017E-02  -1.17360548E-08
  -5.49999997E-02  -1.01897379E-08
  -5.40000014E-02  -7.98305599E-09
  -5.29999994E-02  -5.32457189E-09
  -5.20000011E-02  -2.37908337E-09
  -5.09999990E-02   7.49510565E-10
  -5.00000007E-02   4.01199829E-09
  -4.89999987E-02   7.38532924E-09
  -4.80000004E-02   1.08282832E-08
  -4.69999984E-02   1.42327163E-08
  -4.60000001E-02   1.73847390E-08
  -4.50000018E-02   1.99500683E-08
  -4.39999998E-02   2.14939391E-08
  -4.30000015E-02   2.15386127E-08
  -4.19999994E-02   1.96520329E-08
  -4.10000011E-02   1.55517323E-08
  -3.99999991E-02   9.20141918E-09
  -3.90000008E-02   8.76044848E-10
  -3.79999988E-02  -8.82437678E-09
  -3.70000005E-02  -1.90216500E-08
  -3.59999985E-02  -2.86627717E-08
  -3.50000001E-02  -3.66618771E-08
  -3.40000018E-02  -4.20529922E-08
  -3.29999998E-02  -4.41226895E-08
  -3.20000015E-02  -4.24967048E-08
  -3.09999995E-02  -3.71663980E-08
  -2.99999993E-02  -2.84565083E-08
  -2.89999992E-02  -1.69504855E-08
  -2.80000009E-02  -3.39949979E-09
  -2.70000007E-02   1.13572192E-08
  -2.60000005E-02   2.64400803E-08
  -2.50000004E-02   4.09380156E-08
  -2.40000002E-02   5.38879767E-08
  -2.30000000E-02   6.42480060E-08
  -2.19999999E-02   7.08933783E-08
  -2.09999997E-02   7.26619049E-08
  -1.99999996E-02   6.84620716E-08
  -1.89999994E-02   5.74384131E-08
  -1.79999992E-02   3.91686221E-08
  -1.70000009E-02   1.38510678E-08
  -1.60000008E-02  -1.75651031E-08
  -1.49999997E-02  -5.33501741E-08
  -1.40000004E-02  -9.10912519E-08
  -1.30000003E-02  -1.27919961E-07
  -1.20000001E-02  -1.60847307E-07
  -1.09999999E-02  -1.87159230E-07
  -9.99999978E-03  -2.04811485E-07
  -8.99999961E-03  -2.12758380E-07
  -8.00000038E-03  -2.11158223E-07
  -7.00000022E-03  -2.01417052E-07
  -6.00000005E-03  -1.86057733E-07
  -4.99999989E-03  -1.68430432E-07
  -4.00000019E-03  -1.52306356E-07
  -3.00000003E-03  -1.41416820E-07
  -2.00000009E-03  -1.39009870E-07
  -1.00000005E-03  -1.47495001E-07
   0.00000000      -1.68233058E-07
   1.00000005E-03  -2.01504932E-07
   2.00000009E-03  -2.46661642E-07
   3.00000003E-03  -3.02426514E-07
   4.00000019E-03  -3.67292216E-07
   4.99999989E-03  -4.39936514E-07
   6.00000005E-03  -5.19577554E-07
   7.00000022E-03  -6.06200956E-07
   8.00000038E-03  -7.00617477E-07
   8.99999961E-03  -8.04346200E-07
   9.99999978E-03  -9.19356182E-07
   1.09999999E-02  -1.04772982E-06
   1.20000001E-02  -1.19132949E-06
   1.30000003E-02  -1.35154710E-06
   1.40000004E-02  -1.52919745E-06
   1.49999997E-02  -1.72458090E-06
   1.60000008E-02  -1.93770325E-06
   1.70000009E-02  -2.16860394E-06
   1.79999992E-02  -2.41771886E-06
   1.89999994E-02  -2.68620192E-06
   1.99999996E-02  -2.97613678E-06
   2.09999997E-02  -3.29060435E-06
   2.19999999E-02  -3.63360164E-06
   2.30000000E-02  -4.00984254E-06
   2.40000002E-02  -4.42449482E-06
   2.50000004E-02  -4.88291698E-06
   2.60000005E-02  -5.39044458E-06
   2.70000007E-02  -5.95226993E-06
   2.80000009E-02  -6.57341889E-06
   2.89999992E-02  -7.25881455E-06
   2.99999993E-02  -8.01340320E-06
   3.09999995E-02  -8.84230212E-06
   3.20000015E-02  -9.75094554E-06
   3.29999998E-02  -1.07452124E-05
   3.40000018E-02  -1.18315329E-05
   3.50000001E-02  -1.30169792E-05
   3.59999985E-02  -1.43093548E-05
   3.70000005E-02  -1.57172872E-05
   3.79999988E-02  -1.72503260E-05
   3.90000008E-02  -1.89190177E-05
   3.99999991E-02  -2.07349531E-05
   4.10000011E-02  -2.27107375E-05
   4.19999994E-02  -2.48598935E-05
   4.30000015E-02  -2.71966783E-05
   4.39999998E-02  -2.97358365E-05
   4.50000018E-02  -3.24923458E-05
   4.60000001E-02  -3.54811818E-05
   4.69999984E-02  -3.87171822E-05
   4.80000004E-02  -4.22150333E-05
   4.89999987E-02  -4.59894291E-05
   5.00000007E-02  -5.00553797E-05
   5.09999990E-02  -5.44286086E-05
   5.20000011E-02  -5.91260396E-05
   5.29999994E-02  -6.41662409E-05
   5.40000014E-02  -6.95698182E-05
   5.49999997E-02  -7.53596178E-05
   5.60000017E-02  -8.15608291E-05
   5.70000000E-02  -8.82009044E-05
   5.79999983E-02  -9.53093404E-05
   5.90000004E-02  -1.02917395E-04
   5.99999987E-02  -1.11057758E-04
   6.10000007E-02  -1.19764234E-04
   6.19999990E-02  -1.29071501E-04
   6.30000010E-02  -1.39014825E-04
   6.40000030E-02  -1.49629996E-04
   6.49999976E-02  -1.60953088E-04
   6.59999996E-02  -1.73020526E-04
   6.70000017E-02  -1.85869023E-04
   6.80000037E-02  -1.99535672E-04
   6.89999983E-02  -2.14058149E-04
   7.00000003E-02  -2.29474987E-04
   7.10000023E-02  -2.45825882E-04
   7.19999969E-02  -2.63152033E-04
   7.29999989E-02  -2.81496410E-04
   7.40000010E-02  -3.00904067E-04
   7.50000030E-02  -3.21422063E-04
   7.59999976E-02  -3.43099324E-04
   7.69999996E-02  -3.65986198E-04
   7.80000016E-02  -3.90134141E-04
   7.90000036E-02  -4.15595074E-04
   7.99999982E-02  -4.42420976E-04
   8.10000002E-02  -4.70663741E-04
   8.20000023E-02  -5.00374823E-04
   8.29999968E-02  -5.31605678E-04
   8.39999989E-02  -5.64407790E-04
   8.50000009E-02  -5.98832790E-04
   8.60000029E-02  -6.34933007E-04
   8.69999975E-02  -6.72761002E-04
   8.79999995E-02  -7.12369569E-04
   8.90000015E-02  -7.53811211E-04
   9.00000036E-02  -7.97137793E-04
   9.09999982E-02  -8.42399779E-04
   9.20000002E-02  -8.89646122E-04
   9.30000022E-02  -9.38923797E-04
   9.39999968E-02  -9.90277855E-04
   9.49999988E-02  -1.04375184E-03
   9.60000008E-02  -1.09938742E-03
   9.70000029E-02  -1.15722488E-03
   9.79999974E-02  -1.21730310E-03
   9.89999995E-02  -1.27965957E-03
  0.100000001      -1.34432956E-03
  0.101000004      -1.41134660E-03
  0.101999998      -1.48074154E-03
  0.103000000      -1.55254221E-03
  0.104000002      -1.62677327E-03
  0.104999997      -1.70345581E-03
  0.105999999      -1.78260764E-03
  0.107000001      -1.86424237E-03
  0.108000003      -1.94836955E-03
  0.108999997      -2.03499431E-03
  0.109999999      -2.12411676E-03
  0.111000001      -2.21573142E-03
  0.112000003      -2.30982667E-03
  0.112999998      -2.40638526E-03
  0.114000000      -2.50538322E-03
  0.115000002      -2.60679005E-03
  0.115999997      -2.71056918E-03
  0.116999999      -2.81667709E-03
  0.118000001      -2.92506418E-03
  0.119000003      -3.03567387E-03
  0.119999997      -3.14844213E-03
  0.120999999      -3.26329772E-03
  0.122000001      -3.38016171E-03
  0.123000003      -3.49894702E-03
  0.123999998      -3.61955864E-03
  0.125000000      -3.74189252E-03
  0.126000002      -3.86583735E-03
  0.127000004      -3.99127323E-03
  0.128000006      -4.11807187E-03
  0.128999993      -4.24609706E-03
  0.129999995      -4.37520258E-03
  0.130999997      -4.50523384E-03
  0.131999999      -4.63602599E-03
  0.133000001      -4.76740347E-03
  0.134000003      -4.89918049E-03
  0.135000005      -5.03116148E-03
  0.136000007      -5.16313920E-03
  0.136999995      -5.29489806E-03
  0.137999997      -5.42621175E-03
  0.138999999      -5.55684464E-03
  0.140000001      -5.68655087E-03
  0.141000003      -5.81507524E-03
  0.142000005      -5.94215328E-03
  0.143000007      -6.06750976E-03
  0.143999994      -6.19086018E-03
  0.144999996      -6.31190883E-03
  0.145999998      -6.43035164E-03
  0.147000000      -6.54587476E-03
  0.148000002      -6.65815547E-03
  0.149000004      -6.76686410E-03
  0.150000006      -6.87166257E-03
  0.150999993      -6.97220676E-03
  0.151999995      -7.06814509E-03
  0.152999997      -7.15912133E-03
  0.153999999      -7.24477321E-03
  0.155000001      -7.32473331E-03
  0.156000003      -7.39862956E-03
  0.157000005      -7.46608712E-03
  0.158000007      -7.52672553E-03
  0.158999994      -7.58016296E-03
  0.159999996      -7.62601476E-03
  0.160999998      -7.66389538E-03
  0.162000000      -7.69341830E-03
  0.163000003      -7.71419890E-03
  0.164000005      -7.72585347E-03
  0.165000007      -7.72800343E-03
  0.165999994      -7.72027485E-03
  0.166999996      -7.70229986E-03
  0.167999998      -7.67371990E-03
  0.169000000      -7.63418525E-03
  0.170000002      -7.58335693E-03
  0.171000004      -7.52090756E-03
  0.172000006      -7.44652376E-03
  0.172999993      -7.35990610E-03
  0.173999995      -7.26076961E-03
  0.174999997      -7.14884792E-03
  0.175999999      -7.02389190E-03
  0.177000001      -6.88567292E-03
  0.178000003      -6.73398329E-03
  0.179000005      -6.56864000E-03
  0.180000007      -6.38948288E-03
  0.180999994      -6.19637826E-03
  0.181999996      -5.98921999E-03
  0.182999998      -5.76793076E-03
  0.184000000      -5.53246401E-03
  0.185000002      -5.28280437E-03
  0.186000004      -5.01896907E-03
  0.187000006      -4.74100932E-03
  0.187999994      -4.44901176E-03
  0.188999996      -4.14309790E-03
  0.189999998      -3.82342585E-03
  0.191000000      -3.49019025E-03
  0.192000002      -3.14362324E-03
  0.193000004      -2.78399442E-03
  0.194000006      -2.41161091E-03
  0.194999993      -2.02681846E-03
  0.195999995      -1.63000065E-03
  0.196999997      -1.22157997E-03
  0.197999999      -8.02017050E-04
  0.199000001      -3.71810456E-04
  0.200000003       6.85040504E-05
  0.201000005       5.18354296E-04
  0.202000007       9.77132586E-04
  0.202999994       1.44419703E-03
  0.203999996       1.91887270E-03
  0.204999998       2.40045274E-03
  0.206000000       2.88820104E-03
  0.207000002       3.38135287E-03
  0.208000004       3.87911801E-03
  0.209000006       4.38068295E-03
  0.209999993       4.88521298E-03
  0.210999995       5.39185479E-03
  0.211999997       5.89974085E-03
  0.213000000       6.40799012E-03
  0.214000002       6.91571133E-03
  0.215000004       7.42200390E-03
  0.216000006       7.92596210E-03
  0.216999993       8.42667557E-03
  0.217999995       8.92323349E-03
  0.218999997       9.41472501E-03
  0.219999999       9.90024302E-03
  0.221000001       1.03788916E-02
  0.222000003       1.08497841E-02
  0.223000005       1.13120498E-02
  0.224000007       1.17648384E-02
  0.224999994       1.22073209E-02
  0.225999996       1.26386965E-02
  0.226999998       1.30581902E-02
  0.228000000       1.34650590E-02
  0.229000002       1.38585931E-02
  0.230000004       1.42381163E-02
  0.231000006       1.46029918E-02
  0.231999993       1.49526214E-02
  0.232999995       1.52864465E-02
  0.233999997       1.56039521E-02
  0.234999999       1.59046669E-02
  0.236000001       1.61881670E-02
  0.237000003       1.64540764E-02
  0.238000005       1.67020652E-02
  0.238999993       1.69318542E-02
  0.239999995       1.71432160E-02
  0.240999997       1.73359737E-02
  0.241999999       1.75099988E-02
  0.243000001       1.76652148E-02
  0.244000003       1.78015996E-02
  0.245000005       1.79191791E-02
  0.246000007       1.80180240E-02
  0.246999994       1.80982612E-02
  0.247999996       1.81600582E-02
  0.248999998       1.82036348E-02
  0.250000000       1.82292517E-02
  0.250999987       1.82372145E-02
  0.252000004       1.82278678E-02
  0.252999991       1.82016008E-02
  0.254000008       1.81588344E-02
  0.254999995       1.81000307E-02
  0.256000012       1.80256814E-02
  0.256999999       1.79363061E-02
  0.257999986       1.78324580E-02
  0.259000003       1.77147128E-02
  0.259999990       1.75836720E-02
  0.261000007       1.74399577E-02
  0.261999995       1.72842089E-02
  0.263000011       1.71170812E-02
  0.263999999       1.69392414E-02
  0.264999986       1.67513695E-02
  0.266000003       1.65541489E-02
  0.266999990       1.63482670E-02
  0.268000007       1.61344092E-02
  0.268999994       1.59132611E-02
  0.270000011       1.56855043E-02
  0.270999998       1.54518159E-02
  0.272000015       1.52128609E-02
  0.273000002       1.49692977E-02
  0.273999989       1.47217754E-02
  0.275000006       1.44709302E-02
  0.275999993       1.42173860E-02
  0.277000010       1.39617501E-02
  0.277999997       1.37046129E-02
  0.279000014       1.34465471E-02
  0.280000001       1.31881014E-02
  0.280999988       1.29298037E-02
  0.282000005       1.26721561E-02
  0.282999992       1.24156373E-02
  0.284000009       1.21606980E-02
  0.284999996       1.19077656E-02
  0.286000013       1.16572380E-02
  0.287000000       1.14094894E-02
  0.287999988       1.11648683E-02
  0.289000005       1.09236967E-02
  0.289999992       1.06862746E-02
  0.291000009       1.04528740E-02
  0.291999996       1.02237444E-02
  0.293000013       9.99911036E-03
  0.294000000       9.77917202E-03
  0.294999987       9.56410356E-03
  0.296000004       9.35405586E-03
  0.296999991       9.14915651E-03
  0.298000008       8.94951262E-03
  0.298999995       8.75520892E-03
  0.300000012       8.56631156E-03
  0.300999999       8.38286802E-03
  0.301999986       8.20490811E-03
  0.303000003       8.03244393E-03
  0.303999990       7.86547270E-03
  0.305000007       7.70397624E-03
  0.305999994       7.54792290E-03
  0.307000011       7.39726704E-03
  0.307999998       7.25194952E-03
  0.308999985       7.11190095E-03
  0.310000002       6.97703985E-03
  0.310999990       6.84727682E-03
  0.312000006       6.72251312E-03
  0.312999994       6.60264166E-03
  0.314000010       6.48754975E-03
  0.314999998       6.37711771E-03
  0.316000015       6.27122121E-03
  0.317000002       6.16973080E-03
  0.317999989       6.07251469E-03
  0.319000006       5.97943831E-03
  0.319999993       5.89036476E-03
  0.321000010       5.80515759E-03
  0.321999997       5.72368037E-03
  0.323000014       5.64579712E-03
  0.324000001       5.57137234E-03
  0.324999988       5.50027145E-03
  0.326000005       5.43236127E-03
  0.326999992       5.36750956E-03
  0.328000009       5.30558452E-03
  0.328999996       5.24645718E-03
  0.330000013       5.19000040E-03
  0.331000000       5.13608987E-03
  0.331999987       5.08460542E-03
  0.333000004       5.03542973E-03
  0.333999991       4.98844916E-03
  0.335000008       4.94355476E-03
  0.335999995       4.90064034E-03
  0.337000012       4.85960301E-03
  0.338000000       4.82034357E-03
  0.338999987       4.78276704E-03
  0.340000004       4.74678213E-03
  0.340999991       4.71230224E-03
  0.342000008       4.67924541E-03
  0.342999995       4.64753294E-03
  0.344000012       4.61709127E-03
  0.344999999       4.58785007E-03
  0.345999986       4.55974322E-03
  0.347000003       4.53270599E-03
  0.347999990       4.50667739E-03
  0.349000007       4.48159827E-03
  0.349999994       4.45741322E-03
  0.351000011       4.43406915E-03
  0.351999998       4.41151764E-03
  0.352999985       4.38971398E-03
  0.354000002       4.36861720E-03
  0.354999989       4.34819097E-03
  0.356000006       4.32840083E-03
  0.356999993       4.30921605E-03
  0.358000010       4.29060776E-03
  0.358999997       4.27254755E-03
  0.360000014       4.25500795E-03
  0.361000001       4.23796289E-03
  0.361999989       4.22138581E-03
  0.363000005       4.20525158E-03
  0.363999993       4.18953644E-03
  0.365000010       4.17421898E-03
  0.365999997       4.15927824E-03
  0.367000014       4.14469792E-03
  0.368000001       4.13046218E-03
  0.368999988       4.11655800E-03
  0.370000005       4.10297327E-03
  0.370999992       4.08969773E-03
  0.372000009       4.07672115E-03
  0.372999996       4.06403467E-03
  0.374000013       4.05162945E-03
  0.375000000       4.03949572E-03
  0.375999987       4.02762461E-03
  0.377000004       4.01600776E-03
  0.377999991       4.00463538E-03
  0.379000008       3.99350002E-03
  0.379999995       3.98259424E-03
  0.381000012       3.97191010E-03
  0.381999999       3.96144111E-03
  0.382999986       3.95118073E-03
  0.384000003       3.94112384E-03
  0.384999990       3.93126532E-03
  0.386000007       3.92159959E-03
  0.386999995       3.91212245E-03
  0.388000011       3.90282925E-03
  0.388999999       3.89371533E-03
  0.389999986       3.88477556E-03
  0.391000003       3.87600483E-03
  0.391999990       3.86739802E-03
  0.393000007       3.85894906E-03
  0.393999994       3.85065237E-03
  0.395000011       3.84250190E-03
  0.395999998       3.83449229E-03
  0.397000015       3.82661843E-03
  0.398000002       3.81887634E-03
  0.398999989       3.81126325E-03
  0.400000006       3.80377728E-03
  0.400999993       3.79641773E-03
  0.402000010       3.78918438E-03
  0.402999997       3.78207630E-03
  0.404000014       3.77509277E-03
  0.405000001       3.76823172E-03
  0.405999988       3.76148988E-03
  0.407000005       3.75486352E-03
  0.407999992       3.74834775E-03
  0.409000009       3.74193769E-03
  0.409999996       3.73562798E-03
  0.411000013       3.72941419E-03
  0.412000000       3.72329191E-03
  0.412999988       3.71725718E-03
  0.414000005       3.71130649E-03
  0.414999992       3.70543543E-03
  0.416000009       3.69963958E-03
  0.416999996       3.69391381E-03
  0.418000013       3.68825276E-03
  0.419000000       3.68265202E-03
  0.419999987       3.67710763E-03
  0.421000004       3.67161748E-03
  0.421999991       3.66618042E-03
  0.423000008       3.66079737E-03
  0.423999995       3.65546974E-03
  0.425000012       3.65019892E-03
  0.425999999       3.64498538E-03
  0.426999986       3.63982772E-03
  0.428000003       3.63472244E-03
  0.428999990       3.62966419E-03
  0.430000007       3.62464646E-03
  0.430999994       3.61966225E-03
  0.432000011       3.61470599E-03
  0.432999998       3.60977324E-03
  0.433999985       3.60486191E-03
  0.435000002       3.59997246E-03
  0.435999990       3.59510677E-03
  0.437000006       3.59026785E-03
  0.437999994       3.58545780E-03
  0.439000010       3.58067849E-03
  0.439999998       3.57592991E-03
  0.441000015       3.57121113E-03
  0.442000002       3.56652029E-03
  0.442999989       3.56185553E-03
  0.444000006       3.55721591E-03
  0.444999993       3.55260191E-03
  0.446000010       3.54801584E-03
  0.446999997       3.54346144E-03
  0.448000014       3.53894406E-03
  0.449000001       3.53446952E-03
  0.449999988       3.53004318E-03
  0.451000005       3.52567038E-03
  0.451999992       3.52135510E-03
  0.453000009       3.51710059E-03
  0.453999996       3.51290940E-03
  0.455000013       3.50878341E-03
  0.456000000       3.50472471E-03
  0.456999987       3.50073492E-03
  0.458000004       3.49681592E-03
  0.458999991       3.49296979E-03
  0.460000008       3.48919863E-03
  0.460999995       3.48550500E-03
  0.462000012       3.48189147E-03
  0.463000000       3.47836106E-03
  0.463999987       3.47491703E-03
  0.465000004       3.47156287E-03
  0.465999991       3.46830231E-03
  0.467000008       3.46513838E-03
  0.467999995       3.46207409E-03
  0.469000012       3.45911109E-03
  0.469999999       3.45625007E-03
  0.470999986       3.45349009E-03
  0.472000003       3.45082954E-03
  0.472999990       3.44826537E-03
  0.474000007       3.44579457E-03
  0.474999994       3.44341411E-03
  0.476000011       3.44112050E-03
  0.476999998       3.43891187E-03
  0.477999985       3.43678566E-03
  0.479000002       3.43474001E-03
  0.479999989       3.43277236E-03
  0.481000006       3.43087967E-03
  0.481999993       3.42905824E-03
  0.483000010       3.42730293E-03
  0.483999997       3.42560769E-03
  0.485000014       3.42396647E-03
  0.486000001       3.42237204E-03
  0.486999989       3.42081790E-03
  0.488000005       3.41929775E-03
  0.488999993       3.41780600E-03
  0.490000010       3.41633800E-03
  0.490999997       3.41489003E-03
  0.492000014       3.41345952E-03
  0.493000001       3.41204414E-03
  0.493999988       3.41064180E-03
  0.495000005       3.40924994E-03
  0.495999992       3.40786600E-03
  0.497000009       3.40648624E-03
  0.497999996       3.40510672E-03
  0.499000013       3.40372277E-03
  0.500000000       3.40232905E-03
  0.500999987       3.40092112E-03
  0.501999974       3.39949457E-03
  0.503000021       3.39804660E-03
  0.504000008       3.39657534E-03
  0.504999995       3.39508103E-03
  0.505999982       3.39356484E-03
  0.507000029       3.39202909E-03
  0.508000016       3.39047611E-03
  0.509000003       3.38890846E-03
  0.509999990       3.38732824E-03
  0.510999978       3.38573637E-03
  0.512000024       3.38413403E-03
  0.513000011       3.38252191E-03
  0.513999999       3.38090025E-03
  0.514999986       3.37927020E-03
  0.515999973       3.37763340E-03
  0.517000020       3.37599148E-03
  0.518000007       3.37434700E-03
  0.518999994       3.37270205E-03
  0.519999981       3.37105896E-03
  0.521000028       3.36941960E-03
  0.522000015       3.36778583E-03
  0.523000002       3.36615974E-03
  0.523999989       3.36454343E-03
  0.524999976       3.36293923E-03
  0.526000023       3.36134923E-03
  0.527000010       3.35977576E-03
  0.527999997       3.35822138E-03
  0.528999984       3.35668796E-03
  0.529999971       3.35517689E-03
  0.531000018       3.35368933E-03
  0.532000005       3.35222553E-03
  0.532999992       3.35078593E-03
  0.533999979       3.34937056E-03
  0.535000026       3.34797916E-03
  0.536000013       3.34661198E-03
  0.537000000       3.34526901E-03
  0.537999988       3.34395049E-03
  0.538999975       3.34265595E-03
  0.540000021       3.34138493E-03
  0.541000009       3.34013626E-03
  0.541999996       3.33890901E-03
  0.542999983       3.33770178E-03
  0.544000030       3.33651388E-03
  0.545000017       3.33534391E-03
  0.546000004       3.33419139E-03
  0.546999991       3.33305565E-03
  0.547999978       3.33193573E-03
  0.549000025       3.33083025E-03
  0.550000012       3.32973711E-03
  0.550999999       3.32865422E-03
  0.551999986       3.32757924E-03
  0.552999973       3.32650985E-03
  0.554000020       3.32544465E-03
  0.555000007       3.32438317E-03
  0.555999994       3.32332635E-03
  0.556999981       3.32227559E-03
  0.558000028       3.32123321E-03
  0.559000015       3.32020177E-03
  0.560000002       3.31918336E-03
  0.560999990       3.31817940E-03
  0.561999977       3.31719080E-03
  0.563000023       3.31621687E-03
  0.564000010       3.31525691E-03
  0.564999998       3.31430975E-03
  0.565999985       3.31337354E-03
  0.566999972       3.31244664E-03
  0.568000019       3.31152696E-03
  0.569000006       3.31061310E-03
  0.569999993       3.30970366E-03
  0.570999980       3.30879749E-03
  0.572000027       3.30789457E-03
  0.573000014       3.30699515E-03
  0.574000001       3.30610084E-03
  0.574999988       3.30521446E-03
  0.575999975       3.30433901E-03
  0.577000022       3.30347847E-03
  0.578000009       3.30263632E-03
  0.578999996       3.30181536E-03
  0.579999983       3.30101768E-03
  0.580999970       3.30024376E-03
  0.582000017       3.29949288E-03
  0.583000004       3.29876342E-03
  0.583999991       3.29805329E-03
  0.584999979       3.29735992E-03
  0.586000025       3.29668098E-03
  0.587000012       3.29601462E-03
  0.588000000       3.29535874E-03
  0.588999987       3.29471170E-03
  0.589999974       3.29407188E-03
  0.591000021       3.29343812E-03
  0.592000008       3.29280947E-03
  0.592999995       3.29218525E-03
  0.593999982       3.29156546E-03
  0.595000029       3.29095079E-03
  0.596000016       3.29034287E-03
  0.597000003       3.28974309E-03
  0.597999990       3.28915333E-03
  0.598999977       3.28857475E-03
  0.600000024       3.28800781E-03
  0.601000011       3.28745251E-03
  0.601999998       3.28690745E-03
  0.602999985       3.28637101E-03
  0.603999972       3.28584155E-03
  0.605000019       3.28531768E-03
  0.606000006       3.28479800E-03
  0.606999993       3.28428159E-03
  0.607999980       3.28376866E-03
  0.609000027       3.28325899E-03
  0.610000014       3.28275305E-03
  0.611000001       3.28225084E-03
  0.611999989       3.28175281E-03
  0.612999976       3.28125968E-03
  0.614000022       3.28077213E-03
  0.615000010       3.28029040E-03
  0.615999997       3.27981543E-03
  0.616999984       3.27934744E-03
  0.617999971       3.27888643E-03
  0.619000018       3.27843195E-03
  0.620000005       3.27798305E-03
  0.620999992       3.27753834E-03
  0.621999979       3.27709643E-03
  0.623000026       3.27665685E-03
  0.624000013       3.27621959E-03
  0.625000000       3.27578560E-03
  0.625999987       3.27535626E-03
  0.626999974       3.27493344E-03
  0.628000021       3.27451900E-03
  0.629000008       3.27411434E-03
  0.629999995       3.27371946E-03
  0.630999982       3.27333366E-03
  0.632000029       3.27295531E-03
  0.633000016       3.27258208E-03
  0.634000003       3.27221211E-03
  0.634999990       3.27184331E-03
  0.635999978       3.27147497E-03
  0.637000024       3.27110663E-03
  0.638000011       3.27073876E-03
  0.638999999       3.27037182E-03
  0.639999986       3.27000627E-03
  0.640999973       3.26964189E-03
  0.642000020       3.26927798E-03
  0.643000007       3.26891360E-03
  0.643999994       3.26854736E-03
  0.644999981       3.26817716E-03
  0.646000028       3.26780113E-03
  0.647000015       3.26741766E-03
  0.648000002       3.26702558E-03
  0.648999989       3.26662418E-03
  0.649999976       3.26621300E-03
  0.651000023       3.26579297E-03
  0.652000010       3.26536526E-03
  0.652999997       3.26493219E-03
  0.653999984       3.26449680E-03
  0.654999971       3.26406234E-03
  0.656000018       3.26363253E-03
  0.657000005       3.26321018E-03
  0.657999992       3.26279644E-03
  0.658999979       3.26239178E-03
  0.660000026       3.26199480E-03
  0.661000013       3.26160295E-03
  0.662000000       3.26121342E-03
  0.662999988       3.26082297E-03
  0.663999975       3.26042948E-03
  0.665000021       3.26003134E-03
  0.666000009       3.25962878E-03
  0.666999996       3.25922249E-03
  0.667999983       3.25881341E-03
  0.669000030       3.25840292E-03
  0.670000017       3.25799198E-03
  0.671000004       3.25758150E-03
  0.671999991       3.25717195E-03
  0.672999978       3.25676473E-03
  0.674000025       3.25636123E-03
  0.675000012       3.25596426E-03
  0.675999999       3.25557683E-03
  0.676999986       3.25520243E-03
  0.677999973       3.25484481E-03
  0.679000020       3.25450674E-03
  0.680000007       3.25418892E-03
  0.680999994       3.25389113E-03
  0.681999981       3.25361127E-03
  0.683000028       3.25334584E-03
  0.684000015       3.25309136E-03
  0.685000002       3.25284433E-03
  0.685999990       3.25260195E-03
  0.686999977       3.25236213E-03
  0.688000023       3.25212395E-03
  0.689000010       3.25188763E-03
  0.689999998       3.25165340E-03
  0.690999985       3.25142173E-03
  0.691999972       3.25119309E-03
  0.693000019       3.25096771E-03
  0.694000006       3.25074559E-03
  0.694999993       3.25052626E-03
  0.695999980       3.25030973E-03