 -0.159999996       0.00000000    
 -0.158999994       0.00000000    
 -0.158000007       0.00000000    
 -0.157000005      -4.70763362E-14
 -0.156000003      -1.47756332E-13
 -0.155000001       8.91568313E-14
 -0.153999999       1.87545140E-12
 -0.152999997       7.13883033E-12
 -0.151999995       1.72665510E-11
 -0.150999993       3.06805657E-11
 -0.150000006       4.03385068E-11
 -0.149000004       3.32537921E-11
 -0.148000002      -5.82888035E-12
 -0.147000000      -8.59528421E-11
 -0.145999998      -1.98837627E-10
 -0.144999996      -3.10330900E-10
 -0.143999994      -3.61076974E-10
 -0.143000007      -2.81374007E-10
 -0.142000005      -1.99435433E-11
 -0.141000003       4.21121082E-10
 -0.140000001       9.59597957E-10
 -0.138999999       1.43107159E-09
 -0.137999997       1.62299041E-09
 -0.136999995       1.34393874E-09
 -0.136000007       5.10962828E-10
 -0.135000005      -7.76184617E-10
 -0.134000003      -2.20974572E-09
 -0.133000001      -3.32415140E-09
 -0.131999999      -3.62492814E-09
 -0.130999997      -2.76825030E-09
 -0.129999995      -7.34764360E-10
 -0.128999993       2.07166484E-09
 -0.128000006       4.85834528E-09
 -0.127000004       6.63255806E-09
 -0.126000002       6.51244347E-09
 -0.125000000       4.07426715E-09
 -0.123999998      -3.82422205E-10
 -0.123000003      -5.76596682E-09
 -0.122000001      -1.03874482E-08
 -0.120999999      -1.24063115E-08
 -0.119999997      -1.04233608E-08
 -0.119000003      -4.04747480E-09
 -0.118000001       5.75954084E-09
 -0.116999999       1.67141394E-08
 -0.115999997       2.56725734E-08
 -0.115000002       2.94447258E-08
 -0.114000000       2.57572719E-08
 -0.112999998       1.40883740E-08
 -0.112000003      -3.89884836E-09
 -0.111000001      -2.45047165E-08
 -0.109999999      -4.27461480E-08
 -0.108999997      -5.35580504E-08
 -0.108000003      -5.31400346E-08
 -0.107000001      -4.00796516E-08
 -0.105999999      -1.59234634E-08
 -0.104999997       1.49937680E-08
 -0.104000002       4.64510066E-08
 -0.103000000       7.17592954E-08
 -0.101999998       8.53346762E-08
 -0.101000004       8.40174508E-08
 -0.100000001       6.77976004E-08
  -9.89999995E-02   3.97684907E-08
  -9.79999974E-02   5.33877431E-09
  -9.70000029E-02  -2.90745721E-08
  -9.60000008E-02  -5.75250105E-08
  -9.49999988E-02  -7.58164731E-08
  -9.39999968E-02  -8.22911375E-08
  -9.30000022E-02  -7.79801042E-08
  -9.20000002E-02  -6.61447643E-08
  -9.09999982E-02  -5.13835765E-08
  -9.00000036E-02  -3.85620851E-08
  -8.90000015E-02  -3.18301652E-08
  -8.79999995E-02  -3.39284618E-08
  -8.69999975E-02  -4.58846259E-08
  -8.60000029E-02  -6.70934952E-08
  -8.50000009E-02  -9.56931885E-08
  -8.39999989E-02  -1.29107093E-07
  -8.29999968E-02  -1.64620076E-07
  -8.20000023E-02  -1.99884113E-07
  -8.10000002E-02  -2.33287224E-07
  -7.99999982E-02  -2.64156995E-07
  -7.90000036E-02  -2.92798745E-07
  -7.80000016E-02  -3.20389091E-07
  -7.69999996E-02  -3.48762370E-07
  -7.59999976E-02  -3.80143064E-07
  -7.50000030E-02  -4.16887445E-07
  -7.40000010E-02  -4.61299663E-07
  -7.29999989E-02  -5.15568672E-07
  -7.19999969E-02  -5.81835138E-07
  -7.10000023E-02  -6.62345656E-07
  -7.00000003E-02  -7.59603438E-07
  -6.89999983E-02  -8.76400065E-07
  -6.80000037E-02  -1.01563546E-06
  -6.70000017E-02  -1.17989691E-06
  -6.59999996E-02  -1.37087181E-06
  -6.49999976E-02  -1.58877026E-06
  -6.40000030E-02  -1.83199586E-06
  -6.30000010E-02  -2.09729205E-06
  -6.19999990E-02  -2.38049211E-06
  -6.10000007E-02  -2.67782616E-06
  -5.99999987E-02  -2.98754617E-06
  -5.90000004E-02  -3.31146475E-06
  -5.79999983E-02  -3.65595452E-06
  -5.70000000E-02  -4.03202648E-06
  -5.60000017E-02  -4.45432397E-06
  -5.49999997E-02  -4.93916559E-06
  -5.40000014E-02  -5.50205004E-06
  -5.29999994E-02  -6.15524459E-06
  -5.20000011E-02  -6.90610796E-06
  -5.09999990E-02  -7.75664103E-06
  -5.00000007E-02  -8.70444910E-06
  -4.89999987E-02  -9.74491013E-06
  -4.80000004E-02  -1.08740396E-05
  -4.69999984E-02  -1.20913073E-05
  -4.60000001E-02  -1.34017073E-05
  -4.50000018E-02  -1.48166037E-05
  -4.39999998E-02  -1.63531986E-05
  -4.30000015E-02  -1.80328971E-05
  -4.19999994E-02  -1.98791058E-05
  -4.10000011E-02  -2.19151352E-05
  -3.99999991E-02  -2.41627749E-05
  -3.90000008E-02  -2.66418738E-05
  -3.79999988E-02  -2.93708927E-05
  -3.70000005E-02  -3.23680870E-05
  -3.59999985E-02  -3.56528399E-05
  -3.50000001E-02  -3.92466281E-05
  -3.40000018E-02  -4.31733351E-05
  -3.29999998E-02  -4.74588560E-05
  -3.20000015E-02  -5.21302463E-05
  -3.09999995E-02  -5.72148601E-05
  -2.99999993E-02  -6.27399204E-05
  -2.89999992E-02  -6.87327774E-05
  -2.80000009E-02  -7.52219566E-05
  -2.70000007E-02  -8.22387447E-05
  -2.60000005E-02  -8.98188300E-05
  -2.50000004E-02  -9.80035620E-05
  -2.40000002E-02  -1.06840431E-04
  -2.30000000E-02  -1.16382667E-04
  -2.19999999E-02  -1.26688014E-04
  -2.09999997E-02  -1.37817085E-04
  -1.99999996E-02  -1.49831743E-04
  -1.89999994E-02  -1.62793993E-04
  -1.79999992E-02  -1.76765432E-04
  -1.70000009E-02  -1.91807558E-04
  -1.60000008E-02  -2.07982550E-04
  -1.49999997E-02  -2.25354321E-04
  -1.40000004E-02  -2.43989372E-04
  -1.30000003E-02  -2.63957510E-04
  -1.20000001E-02  -2.85332178E-04
  -1.09999999E-02  -3.08190472E-04
  -9.99999978E-03  -3.32613155E-04
  -8.99999961E-03  -3.58684774E-04
  -8.00000038E-03  -3.86493717E-04
  -7.00000022E-03  -4.16132476E-04
  -6.00000005E-03  -4.47697850E-04
  -4.99999989E-03  -4.81290743E-04
  -4.00000019E-03  -5.17015753E-04
  -3.00000003E-03  -5.54980186E-04
  -2.00000009E-03  -5.95293241E-04
  -1.00000005E-03  -6.38064870E-04
   0.00000000      -6.83405320E-04
   1.00000005E-03  -7.31425185E-04
   2.00000009E-03  -7.82235642E-04
   3.00000003E-03  -8.35949439E-04
   4.00000019E-03  -8.92681535E-04
   4.99999989E-03  -9.52549628E-04
   6.00000005E-03  -1.01567362E-03
   7.00000022E-03  -1.08217425E-03
   8.00000038E-03  -1.15217257E-03
   8.99999961E-03  -1.22578721E-03
   9.99999978E-03  -1.30313344E-03
   1.09999999E-02  -1.38432276E-03
   1.20000001E-02  -1.46946264E-03
   1.30000003E-02  -1.55865785E-03
   1.40000004E-02  -1.65201165E-03
   1.49999997E-02  -1.74962694E-03
   1.60000008E-02  -1.85160688E-03
   1.70000009E-02  -1.95805379E-03
   1.79999992E-02  -2.06906861E-03
   1.89999994E-02  -2.18474679E-03
   1.99999996E-02  -2.30517704E-03
   2.09999997E-02  -2.43043806E-03
   2.19999999E-02  -2.56059738E-03
   2.30000000E-02  -2.69571040E-03
   2.40000002E-02  -2.83582136E-03
   2.50000004E-02  -2.98096403E-03
   2.60000005E-02  -3.13116401E-03
   2.70000007E-02  -3.28643876E-03
   2.80000009E-02  -3.44679761E-03
   2.89999992E-02  -3.61224054E-03
   2.99999993E-02  -3.78275616E-03
   3.09999995E-02  -3.95831931E-03
   3.20000015E-02  -4.13888879E-03
   3.29999998E-02  -4.32440545E-03
   3.40000018E-02  -4.51479061E-03
   3.50000001E-02  -4.70994785E-03
   3.59999985E-02  -4.90976451E-03
   3.70000005E-02  -5.11411205E-03
   3.79999988E-02  -5.32284845E-03
   3.90000008E-02  -5.53581771E-03
   3.99999991E-02  -5.75284939E-03
   4.10000011E-02  -5.97375818E-03
   4.19999994E-02  -6.19834010E-03
   4.30000015E-02  -6.42637257E-03
   4.39999998E-02  -6.65761065E-03
   4.50000018E-02  -6.89178566E-03
   4.60000001E-02  -7.12860748E-03
   4.69999984E-02  -7.36776460E-03
   4.80000004E-02  -7.60892406E-03
   4.89999987E-02  -7.85173569E-03
   5.00000007E-02  -8.09583254E-03
   5.09999990E-02  -8.34083278E-03
   5.20000011E-02  -8.58633686E-03
   5.29999994E-02  -8.83193407E-03
   5.40000014E-02  -9.07719601E-03
   5.49999997E-02  -9.32168122E-03
   5.60000017E-02  -9.56493150E-03
   5.70000000E-02  -9.80647560E-03
   5.79999983E-02  -1.00458274E-02
   5.90000004E-02  -1.02824895E-02
   5.99999987E-02  -1.05159553E-02
   6.10000007E-02  -1.07457107E-02
   6.19999990E-02  -1.09712332E-02
   6.30000010E-02  -1.11919986E-02
   6.40000030E-02  -1.14074750E-02
   6.49999976E-02  -1.16171297E-02
   6.59999996E-02  -1.18204271E-02
   6.70000017E-02  -1.20168310E-02
   6.80000037E-02  -1.22058094E-02
   6.89999983E-02  -1.23868277E-02
   7.00000003E-02  -1.25593627E-02
   7.10000023E-02  -1.27228945E-02
   7.19999969E-02  -1.28769157E-02
   7.29999989E-02  -1.30209299E-02
   7.40000010E-02  -1.31544536E-02
   7.50000030E-02  -1.32770222E-02
   7.59999976E-02  -1.33881830E-02
   7.69999996E-02  -1.34875048E-02
   7.80000016E-02  -1.35745779E-02
   7.90000036E-02  -1.36490185E-02
   7.99999982E-02  -1.37104671E-02
   8.10000002E-02  -1.37585951E-02
   8.20000023E-02  -1.37931006E-02
   8.29999968E-02  -1.38137136E-02
   8.39999989E-02  -1.38201946E-02
   8.50000009E-02  -1.38123380E-02
   8.60000029E-02  -1.37899667E-02
   8.69999975E-02  -1.37529373E-02
   8.79999995E-02  -1.37011409E-02
   8.90000015E-02  -1.36345048E-02
   9.00000036E-02  -1.35529935E-02
   9.09999982E-02  -1.34566100E-02
   9.20000002E-02  -1.33453989E-02
   9.30000022E-02  -1.32194469E-02
   9.39999968E-02  -1.30788805E-02
   9.49999988E-02  -1.29238684E-02
   9.60000008E-02  -1.27546163E-02
   9.70000029E-02  -1.25713702E-02
   9.79999974E-02  -1.23744123E-02
   9.89999995E-02  -1.21640638E-02
  0.100000001      -1.19406860E-02
  0.101000004      -1.17046777E-02
  0.101999998      -1.14564756E-02
  0.103000000      -1.11965565E-02
  0.104000002      -1.09254317E-02
  0.104999997      -1.06436452E-02
  0.105999999      -1.03517687E-02
  0.107000001      -1.00504002E-02
  0.108000003      -9.74016078E-03
  0.108999997      -9.42168944E-03
  0.109999999      -9.09564458E-03
  0.111000001      -8.76270328E-03
  0.112000003      -8.42356309E-03
  0.112999998      -8.07893649E-03
  0.114000000      -7.72955595E-03
  0.115000002      -7.37616606E-03
  0.115999997      -7.01952446E-03
  0.116999999      -6.66039484E-03
  0.118000001      -6.29954506E-03
  0.119000003      -5.93774347E-03
  0.119999997      -5.57575375E-03
  0.120999999      -5.21433493E-03
  0.122000001      -4.85423906E-03
  0.123000003      -4.49620886E-03
  0.123999998      -4.14097542E-03
  0.125000000      -3.78925726E-03
  0.126000002      -3.44175706E-03
  0.127000004      -3.09915747E-03
  0.128000006      -2.76211859E-03
  0.128999993      -2.43127532E-03
  0.129999995      -2.10723444E-03
  0.130999997      -1.79057487E-03
  0.131999999      -1.48184656E-03
  0.133000001      -1.18157011E-03
  0.134000003      -8.90236988E-04
  0.135000005      -6.08308823E-04
  0.136000007      -3.36216181E-04
  0.136999995      -7.43574274E-05
  0.137999997       1.76903384E-04
  0.138999999       4.17237723E-04
  0.140000001       6.46353234E-04
  0.141000003       8.63993075E-04
  0.142000005       1.06993678E-03
  0.143000007       1.26399891E-03
  0.143999994       1.44602859E-03
  0.144999996       1.61590951E-03
  0.145999998       1.77356100E-03
  0.147000000       1.91893848E-03
  0.148000002       2.05203448E-03
  0.149000004       2.17287848E-03
  0.150000006       2.28153565E-03
  0.150999993       2.37810402E-03
  0.151999995       2.46271212E-03
  0.152999997       2.53551523E-03
  0.153999999       2.59669265E-03
  0.155000001       2.64644646E-03
  0.156000003       2.68499972E-03
  0.157000005       2.71259737E-03
  0.158000007       2.72950716E-03
  0.158999994       2.73601967E-03
  0.159999996       2.73244828E-03
  0.160999998       2.71912664E-03
  0.162000000       2.69640563E-03
  0.163000003       2.66464800E-03
  0.164000005       2.62422534E-03
  0.165000007       2.57551298E-03
  0.165999994       2.51888903E-03
  0.166999996       2.45473394E-03
  0.167999998       2.38343189E-03
  0.169000000       2.30537285E-03
  0.170000002       2.22095475E-03
  0.171000004       2.13058386E-03
  0.172000006       2.03467347E-03
  0.172999993       1.93363999E-03
  0.173999995       1.82789948E-03
  0.174999997       1.71786232E-03
  0.175999999       1.60392863E-03
  0.177000001       1.48648524E-03
  0.178000003       1.36590516E-03
  0.179000005       1.24254893E-03
  0.180000007       1.11676613E-03
  0.180999994       9.88897868E-04
  0.181999996       8.59277963E-04
  0.182999998       7.28232844E-04
  0.184000000       5.96079801E-04
  0.185000002       4.63124859E-04
  0.186000004       3.29659844E-04
  0.187000006       1.95959874E-04
  0.187999994       6.22827283E-05
  0.188999996      -7.11304529E-05
  0.189999998      -2.04052834E-04
  0.191000000      -3.36269499E-04
  0.192000002      -4.67574835E-04
  0.193000004      -5.97771315E-04
  0.194000006      -7.26669154E-04
  0.194999993      -8.54087877E-04
  0.195999995      -9.79858683E-04
  0.196999997      -1.10382668E-03
  0.197999999      -1.22585322E-03
  0.199000001      -1.34581653E-03
  0.200000003      -1.46361149E-03
  0.201000005      -1.57914800E-03
  0.202000007      -1.69234897E-03
  0.202999994      -1.80314784E-03
  0.203999996      -1.91148685E-03
  0.204999998      -2.01731594E-03
  0.206000000      -2.12059217E-03
  0.207000002      -2.22128001E-03
  0.208000004      -2.31935200E-03
  0.209000006      -2.41478928E-03
  0.209999993      -2.50758138E-03
  0.210999995      -2.59772618E-03
  0.211999997      -2.68522906E-03
  0.213000000      -2.77010165E-03
  0.214000002      -2.85236002E-03
  0.215000004      -2.93202465E-03
  0.216000006      -3.00911861E-03
  0.216999993      -3.08366725E-03
  0.217999995      -3.15569877E-03
  0.218999997      -3.22524318E-03
  0.219999999      -3.29233310E-03
  0.221000001      -3.35700484E-03
  0.222000003      -3.41929845E-03
  0.223000005      -3.47925909E-03
  0.224000007      -3.53693706E-03
  0.224999994      -3.59238777E-03
  0.225999996      -3.64567107E-03
  0.226999998      -3.69685004E-03
  0.228000000      -3.74598918E-03
  0.229000002      -3.79315112E-03
  0.230000004      -3.83839617E-03
  0.231000006      -3.88178043E-03
  0.231999993      -3.92335607E-03
  0.232999995      -3.96317104E-03
  0.233999997      -4.00127191E-03
  0.234999999      -4.03770525E-03
  0.236000001      -4.07252135E-03
  0.237000003      -4.10577189E-03
  0.238000005      -4.13751276E-03
  0.238999993      -4.16780077E-03
  0.239999995      -4.19669226E-03
  0.240999997      -4.22424078E-03
  0.241999999      -4.25049663E-03
  0.243000001      -4.27550357E-03
  0.244000003      -4.29930259E-03
  0.245000005      -4.32193186E-03
  0.246000007      -4.34342958E-03
  0.246999994      -4.36383439E-03
  0.247999996      -4.38319007E-03
  0.248999998      -4.40154318E-03
  0.250000000      -4.41894121E-03
  0.250999987      -4.43543307E-03
  0.252000004      -4.45106393E-03
  0.252999991      -4.46587615E-03
  0.254000008      -4.47990559E-03
  0.254999995      -4.49318346E-03
  0.256000012      -4.50573675E-03
  0.256999999      -4.51759016E-03
  0.257999986      -4.52876743E-03
  0.259000003      -4.53929370E-03
  0.259999990      -4.54919506E-03
  0.261000007      -4.55849990E-03
  0.261999995      -4.56723571E-03
  0.263000011      -4.57542948E-03
  0.263999999      -4.58310591E-03
  0.264999986      -4.59028734E-03
  0.266000003      -4.59699379E-03
  0.266999990      -4.60324390E-03
  0.268000007      -4.60905628E-03
  0.268999994      -4.61445050E-03
  0.270000011      -4.61944798E-03
  0.270999998      -4.62407153E-03
  0.272000015      -4.62834584E-03
  0.273000002      -4.63229511E-03
  0.273999989      -4.63594170E-03
  0.275000006      -4.63930564E-03
  0.275999993      -4.64240322E-03
  0.277000010      -4.64524608E-03
  0.277999997      -4.64784307E-03
  0.279000014      -4.65020165E-03
  0.280000001      -4.65232972E-03
  0.280999988      -4.65423614E-03
  0.282000005      -4.65593068E-03
  0.282999992      -4.65742592E-03
  0.284000009      -4.65873722E-03
  0.284999996      -4.65987995E-03
  0.286000013      -4.66086762E-03
  0.287000000      -4.66171280E-03
  0.287999988      -4.66242619E-03
  0.289000005      -4.66301385E-03
  0.289999992      -4.66348184E-03
  0.291000009      -4.66383435E-03
  0.291999996      -4.66407649E-03
  0.293000013      -4.66421619E-03
  0.294000000      -4.66426369E-03
  0.294999987      -4.66423202E-03
  0.296000004      -4.66413423E-03
  0.296999991      -4.66398429E-03
  0.298000008      -4.66379337E-03
  0.298999995      -4.66356892E-03
  0.300000012      -4.66331467E-03
  0.300999999      -4.66303015E-03
  0.301999986      -4.66271304E-03
  0.303000003      -4.66236006E-03
  0.303999990      -4.66196984E-03
  0.305000007      -4.66154190E-03
  0.305999994      -4.66108043E-03
  0.307000011      -4.66059102E-03
  0.307999998      -4.66008019E-03
  0.308999985      -4.65955539E-03
  0.310000002      -4.65902220E-03
  0.310999990      -4.65848437E-03
  0.312000006      -4.65794373E-03
  0.312999994      -4.65740031E-03
  0.314000010      -4.65685409E-03
  0.314999998      -4.65630414E-03
  0.316000015      -4.65574907E-03
  0.317000002      -4.65518842E-03
  0.317999989      -4.65462217E-03
  0.319000006      -4.65404941E-03
  0.319999993      -4.65346919E-03
  0.321000010      -4.65288013E-03
  0.321999997      -4.65228083E-03
  0.323000014      -4.65167034E-03
  0.324000001      -4.65104776E-03
  0.324999988      -4.65041446E-03
  0.326000005      -4.64977138E-03
  0.326999992      -4.64911992E-03
  0.328000009      -4.64846101E-03
  0.328999996      -4.64779278E-03
  0.330000013      -4.64711152E-03
  0.331000000      -4.64641210E-03
  0.331999987      -4.64568846E-03
  0.333000004      -4.64493362E-03
  0.333999991      -4.64414433E-03
  0.335000008      -4.64331824E-03
  0.335999995      -4.64245770E-03
  0.337000012      -4.64156643E-03
  0.338000000      -4.64065047E-03
  0.338999987      -4.63971356E-03
  0.340000004      -4.63875895E-03
  0.340999991      -4.63778572E-03
  0.342000008      -4.63679200E-03
  0.342999995      -4.63577406E-03
  0.344000012      -4.63472679E-03
  0.344999999      -4.63364786E-03
  0.345999986      -4.63253725E-03
  0.347000003      -4.63139638E-03
  0.347999990      -4.63022944E-03
  0.349000007      -4.62903967E-03
  0.349999994      -4.62783035E-03
  0.351000011      -4.62660193E-03
  0.351999998      -4.62535303E-03
  0.352999985      -4.62408038E-03
  0.354000002      -4.62278072E-03
  0.354999989      -4.62145219E-03
  0.356000006      -4.62009385E-03
  0.356999993      -4.61870758E-03
  0.358000010      -4.61729802E-03
  0.358999997      -4.61586984E-03
  0.360000014      -4.61442815E-03
  0.361000001      -4.61297575E-03
  0.361999989      -4.61151497E-03
  0.363000005      -4.61004535E-03
  0.363999993      -4.60856687E-03
  0.365000010      -4.60708002E-03
  0.365999997      -4.60558617E-03
  0.367000014      -4.60408861E-03
  0.368000001      -4.60259011E-03
  0.368999988      -4.60109441E-03
  0.370000005      -4.59960429E-03
  0.370999992      -4.59811976E-03
  0.372000009      -4.59663989E-03
  0.372999996      -4.59516095E-03
  0.374000013      -4.59367922E-03
  0.375000000      -4.59219143E-03
  0.375999987      -4.59069619E-03
  0.377000004      -4.58919536E-03
  0.377999991      -4.58769267E-03
  0.379000008      -4.58619324E-03
  0.379999995      -4.58470313E-03
  0.381000012      -4.58322885E-03
  0.381999999      -4.58177458E-03
  0.382999986      -4.58034361E-03
  0.384000003      -4.57893824E-03
  0.384999990      -4.57755849E-03
  0.386000007      -4.57620388E-03
  0.386999995      -4.57487488E-03
  0.388000011      -4.57356963E-03
  0.388999999      -4.57228767E-03
  0.389999986      -4.57102712E-03
  0.391000003      -4.56978520E-03
  0.391999990      -4.56856005E-03
  0.393000007      -4.56734886E-03
  0.393999994      -4.56615118E-03
  0.395000011      -4.56496608E-03
  0.395999998      -4.56379494E-03
  0.397000015      -4.56264056E-03
  0.398000002      -4.56150668E-03
  0.398999989      -4.56039794E-03
  0.400000006      -4.55931714E-03
  0.400999993      -4.55826614E-03
  0.402000010      -4.55724588E-03
  0.402999997      -4.55625495E-03
  0.404000014      -4.55529289E-03
  0.405000001      -4.55435785E-03
  0.405999988      -4.55345074E-03
  0.407000005      -4.55257157E-03
  0.407999992      -4.55172220E-03
  0.409000009      -4.55090357E-03
  0.409999996      -4.55011660E-03
  0.411000013      -4.54936037E-03
  0.412000000      -4.54863161E-03
  0.412999988      -4.54792706E-03
  0.414000005      -4.54724208E-03
  0.414999992      -4.54657385E-03
  0.416000009      -4.54592006E-03
  0.416999996      -4.54527978E-03
  0.418000013      -4.54465579E-03
  0.419000000      -4.54405043E-03
  0.419999987      -4.54346649E-03
  0.421000004      -4.54290584E-03
  0.421999991      -4.54236846E-03
  0.423000008      -4.54185298E-03
  0.423999995      -4.54135612E-03
  0.425000012      -4.54087323E-03
  0.425999999      -4.54040058E-03
  0.426999986      -4.53993445E-03
  0.428000003      -4.53947345E-03
  0.428999990      -4.53901803E-03
  0.430000007      -4.53857146E-03
  0.430999994      -4.53813653E-03
  0.432000011      -4.53771744E-03
  0.432999998      -4.53731697E-03
  0.433999985      -4.53693746E-03
  0.435000002      -4.53657750E-03
  0.435999990      -4.53623571E-03
  0.437000006      -4.53590555E-03
  0.437999994      -4.53558238E-03
  0.439000010      -4.53525921E-03
  0.439999998      -4.53493139E-03
  0.441000015      -4.53459471E-03
  0.442000002      -4.53424780E-03
  0.442999989      -4.53389203E-03
  0.444000006      -4.53353068E-03
  0.444999993      -4.53316746E-03
  0.446000010      -4.53280611E-03
  0.446999997      -4.53245034E-03
  0.448000014      -4.53210110E-03
  0.449000001      -4.53175837E-03
  0.449999988      -4.53142216E-03
  0.451000005      -4.53109061E-03
  0.451999992      -4.53076232E-03
  0.453000009      -4.53043683E-03
  0.453999996      -4.53011412E-03
  0.455000013      -4.52979421E-03
  0.456000000      -4.52947756E-03
  0.456999987      -4.52916278E-03
  0.458000004      -4.52884706E-03
  0.458999991      -4.52852668E-03
  0.460000008      -4.52819606E-03
  0.460999995      -4.52785147E-03
  0.462000012      -4.52749059E-03
  0.463000000      -4.52711387E-03
  0.463999987      -4.52672550E-03
  0.465000004      -4.52633062E-03
  0.465999991      -4.52593621E-03
  0.467000008      -4.52554785E-03
  0.467999995      -4.52516787E-03
  0.469000012      -4.52479487E-03
  0.469999999      -4.52442467E-03
  0.470999986      -4.52405168E-03
  0.472000003      -4.52366937E-03
  0.472999990      -4.52327402E-03
  0.474000007      -4.52286378E-03
  0.474999994      -4.52244049E-03
  0.476000011      -4.52200836E-03
  0.476999998      -4.52157157E-03
  0.477999985      -4.52113198E-03
  0.479000002      -4.52068960E-03
  0.479999989      -4.52024164E-03
  0.481000006      -4.51978296E-03
  0.481999993      -4.51930938E-03
  0.483000010      -4.51881904E-03
  0.483999997      -4.51831380E-03
  0.485000014      -4.51780017E-03
  0.486000001      -4.51728608E-03
  0.486999989      -4.51678038E-03
  0.488000005      -4.51629004E-03
  0.488999993      -4.51581692E-03
  0.490000010      -4.51535685E-03
  0.490999997      -4.51490097E-03
  0.492000014      -4.51443763E-03
  0.493000001      -4.51395754E-03
  0.493999988      -4.51345416E-03
  0.495000005      -4.51292796E-03
  0.495999992      -4.51238547E-03
  0.497000009      -4.51183831E-03
  0.497999996      -4.51130047E-03
  0.499000013      -4.51078266E-03
  0.500000000      -4.51029278E-03
  0.500999987      -4.50983085E-03
  0.501999974      -4.50939080E-03
  0.503000021      -4.50896379E-03
  0.504000008      -4.50854003E-03
  0.504999995      -4.50811256E-03
  0.505999982      -4.50767810E-03
  0.507000029      -4.50723991E-03
  0.508000016      -4.50680591E-03
  0.509000003      -4.50638495E-03
  0.509999990      -4.50598495E-03
  0.510999978      -4.50561009E-03
  0.512000024      -4.50526038E-03
  0.513000011      -4.50493209E-03
  0.513999999      -4.50461870E-03
  0.514999986      -4.50431462E-03
  0.515999973      -4.50401613E-03
  0.517000020      -4.50372417E-03
  0.518000007      -4.50344244E-03
  0.518999994      -4.50317748E-03
  0.519999981      -4.50293394E-03
  0.521000028      -4.50271554E-03
  0.522000015      -4.50252229E-03
  0.523000002      -4.50234953E-03
  0.523999989      -4.50219167E-03
  0.524999976      -4.50204173E-03
  0.526000023      -4.50189458E-03
  0.527000010      -4.50174743E-03
  0.527999997      -4.50160122E-03
  0.528999984      -4.50146012E-03
  0.529999971      -4.50132834E-03
  0.531000018      -4.50121053E-03
  0.532000005      -4.50110808E-03
  0.532999992      -4.50102193E-03
  0.533999979      -4.50094976E-03
  0.535000026      -4.50088922E-03
  0.536000013      -4.50083800E-03
  0.537000000      -4.50079469E-03
  0.537999988      -4.50075977E-03
  0.538999975      -4.50073415E-03
  0.540000021      -4.50071925E-03
  0.541000009      -4.50071413E-03
  0.541999996      -4.50071553E-03
  0.542999983      -4.50071786E-03
  0.544000030      -4.50071460E-03
  0.545000017      -4.50070016E-03
  0.546000004      -4.50067176E-03
  0.546999991      -4.50063031E-03
  0.547999978      -4.50058142E-03
  0.549000025      -4.50053345E-03
  0.550000012      -4.50049434E-03
  0.550999999      -4.50047106E-03
  0.551999986      -4.50046733E-03
  0.552999973      -4.50048083E-03
  0.554000020      -4.50050551E-03
  0.555000007      -4.50053299E-03
  0.555999994      -4.50055487E-03
  0.556999981      -4.50056419E-03
  0.558000028      -4.50055860E-03
  0.559000015      -4.50054090E-03
  0.560000002      -4.50051576E-03
  0.560999990      -4.50048968E-03
  0.561999977      -4.50046826E-03
  0.563000023      -4.50045336E-03
  0.564000010      -4.50044312E-03
  0.564999998      -4.50043101E-03
  0.565999985      -4.50040959E-03
  0.566999972      -4.50037047E-03
  0.568000019      -4.50030901E-03
  0.569000006      -4.50022426E-03
  0.569999993      -4.50012041E-03
  0.570999980      -4.50000353E-03
  0.572000027      -4.49988106E-03
  0.573000014      -4.49975953E-03
  0.574000001      -4.49964264E-03
  0.574999988      -4.49952902E-03
  0.575999975      -4.49941494E-03
  0.577000022      -4.49929526E-03
  0.578000009      -4.49916488E-03
  0.578999996      -4.49902238E-03
  0.579999983      -4.49886965E-03
  0.580999970      -4.49871132E-03
  0.582000017      -4.49855393E-03
  0.583000004      -4.49840166E-03
  0.583999991      -4.49825684E-03
  0.584999979      -4.49811667E-03
  0.586000025      -4.49797371E-03
  0.587000012      -4.49781679E-03
  0.588000000      -4.49763564E-03
  0.588999987      -4.49742377E-03
  0.589999974      -4.49718023E-03
  0.591000021      -4.49691014E-03
  0.592000008      -4.49662423E-03
  0.592999995      -4.49633645E-03
  0.593999982      -4.49605891E-03
  0.595000029      -4.49579954E-03
  0.596000016      -4.49555973E-03
  0.597000003      -4.49533295E-03
  0.597999990      -4.49510897E-03
  0.598999977      -4.49487753E-03
  0.600000024      -4.49463027E-03
  0.601000011      -4.49436437E-03
  0.601999998      -4.49408498E-03
  0.602999985      -4.49380232E-03
  0.603999972      -4.49352898E-03
  0.605000019      -4.49327473E-03
  0.606000006      -4.49304469E-03
  0.606999993      -4.49283607E-03
  0.607999980      -4.49263956E-03
  0.609000027      -4.49244026E-03
  0.610000014      -4.49222326E-03
  0.611000001      -4.49197832E-03
  0.611999989      -4.49170265E-03
  0.612999976      -4.49140230E-03
  0.614000022      -4.49109124E-03
  0.615000010      -4.49078763E-03
  0.615999997      -4.49051009E-03
  0.616999984      -4.49027075E-03
  0.617999971      -4.49007470E-03
  0.619000018      -4.48991777E-03
  0.620000005      -4.48978879E-03
  0.620999992      -4.48967190E-03
  0.621999979      -4.48955316E-03
  0.623000026      -4.48942324E-03
  0.624000013      -4.48927842E-03
  0.625000000      -4.48912196E-03
  0.625999987      -4.48896084E-03
  0.626999974      -4.48880205E-03
  0.628000021      -4.48865211E-03
  0.629000008      -4.48851241E-03
  0.629999995      -4.48838016E-03
  0.630999982      -4.48824884E-03
  0.632000029      -4.48811194E-03
  0.633000016      -4.48796526E-03
  0.634000003      -4.48780786E-03
  0.634999990      -4.48764395E-03
  0.635999978      -4.48748283E-03
  0.637000024      -4.48733475E-03
  0.638000011      -4.48720763E-03
  0.638999999      -4.48710797E-03
  0.639999986      -4.48703626E-03
  0.640999973      -4.48698783E-03
  0.642000020      -4.48695524E-03
  0.643000007      -4.48692916E-03
  0.643999994      -4.48690169E-03
  0.644999981      -4.48686862E-03
  0.646000028      -4.48682811E-03
  0.647000015      -4.48678154E-03
  0.648000002      -4.48673218E-03
  0.648999989      -4.48668329E-03
  0.649999976      -4.48663626E-03
  0.651000023      -4.48659202E-03
  0.652000010      -4.48654871E-03
  0.652999997      -4.48650448E-03
  0.653999984      -4.48645977E-03
  0.654999971      -4.48641693E-03
  0.656000018      -4.48637968E-03
  0.657000005      -4.48635453E-03
  0.657999992      -4.48634801E-03
  0.658999979      -4.48636431E-03
  0.660000026      -4.48640576E-03
  0.661000013      -4.48647141E-03
  0.662000000      -4.48655803E-03
  0.662999988      -4.48665954E-03
  0.663999975      -4.48676944E-03
  0.665000021      -4.48688213E-03
  0.666000009      -4.48699528E-03
  0.666999996      -4.48710844E-03
  0.667999983      -4.48722346E-03
  0.669000030      -4.48734313E-03
  0.670000017      -4.48747026E-03
  0.671000004      -4.48760670E-03
  0.671999991      -4.48775152E-03
  0.672999978      -4.48790099E-03
  0.674000025      -4.48805047E-03
  0.675000012      -4.48819529E-03
  0.675999999      -4.48833173E-03
  0.676999986      -4.48845746E-03
  0.677999973      -4.48857388E-03
  0.679000020      -4.48868377E-03
  0.680000007      -4.48879274E-03
  0.680999994      -4.48890729E-03
  0.681999981      -4.48903162E-03
  0.683000028      -4.48917039E-03
  0.684000015      -4.48932406E-03
  0.685000002      -4.48949123E-03
  0.685999990      -4.48966585E-03
  0.686999977      -4.48984094E-03
  0.688000023      -4.49000672E-03
  0.689000010      -4.49015200E-03
  0.689999998      -4.49026795E-03
  0.690999985      -4.49034711E-03
  0.691999972      -4.49038530E-03
  0.693000019      -4.49038157E-03
  0.694000006      -4.49033966E-03
  0.694999993      -4.49026562E-03
  0.695999980      -4.49016737E-03