 -0.159999996       0.00000000    
 -0.158999994       0.00000000    
 -0.158000007       0.00000000    
 -0.157000005      -1.39622729E-13
 -0.156000003      -7.35956435E-13
 -0.155000001      -1.95860298E-12
 -0.153999999      -3.19622042E-12
 -0.152999997      -2.63356784E-12
 -0.151999995       2.20727061E-12
 -0.150999993       1.25352706E-11
 -0.150000006       2.54543556E-11
 -0.149000004       3.18003054E-11
 -0.148000002       1.67982381E-11
 -0.147000000      -3.49036702E-11
 -0.145999998      -1.30179104E-10
 -0.144999996      -2.57346200E-10
 -0.143999994      -3.80210086E-10
 -0.143000007      -4.41606779E-10
 -0.142000005      -3.79299175E-10
 -0.141000003      -1.52066401E-10
 -0.140000001       2.32019015E-10
 -0.138999999       6.97244429E-10
 -0.137999997       1.10383247E-09
 -0.136999995       1.27981237E-09
 -0.136000007       1.07735854E-09
 -0.135000005       4.38186376E-10
 -0.134000003      -5.55754220E-10
 -0.133000001      -1.67078917E-09
 -0.131999999      -2.56467625E-09
 -0.130999997      -2.88233992E-09
 -0.129999995      -2.38124498E-09
 -0.128999993      -1.04671039E-09
 -0.128000006       8.47801718E-10
 -0.127000004       2.76986101E-09
 -0.126000002       4.05572020E-09
 -0.125000000       4.11182777E-09
 -0.123999998       2.63459565E-09
 -0.123000003      -2.23948166E-10
 -0.122000001      -3.81126952E-09
 -0.120999999      -7.08726766E-09
 -0.119999997      -8.88539553E-09
 -0.119000003      -8.26207369E-09
 -0.118000001      -4.83707385E-09
 -0.116999999       9.83142345E-10
 -0.115999997       7.98471955E-09
 -0.115000002       1.43621666E-08
 -0.114000000       1.81369568E-08
 -0.112999998       1.76818364E-08
 -0.112000003       1.22138646E-08
 -0.111000001       2.11644546E-09
 -0.109999999      -1.10121681E-08
 -0.108999997      -2.46184513E-08
 -0.108000003      -3.57153880E-08
 -0.107000001      -4.15500807E-08
 -0.105999999      -4.02595433E-08
 -0.104999997      -3.13560946E-08
 -0.104000002      -1.59226357E-08
 -0.103000000       3.53427865E-09
 -0.101999998       2.35472619E-08
 -0.101000004       4.03709670E-08
 -0.100000001       5.07437683E-08
  -9.89999995E-02   5.25739061E-08
  -9.79999974E-02   4.54143851E-08
  -9.70000029E-02   3.06341796E-08
  -9.60000008E-02   1.12504388E-08
  -9.49999988E-02  -8.55378524E-09
  -9.39999968E-02  -2.41480542E-08
  -9.30000022E-02  -3.12901172E-08
  -9.20000002E-02  -2.69352167E-08
  -9.09999982E-02  -9.87173188E-09
  -9.00000036E-02   1.89459062E-08
  -8.90000015E-02   5.64541445E-08
  -8.79999995E-02   9.79511441E-08
  -8.69999975E-02   1.37928183E-07
  -8.60000029E-02   1.71129855E-07
  -8.50000009E-02   1.93648575E-07
  -8.39999989E-02   2.03830140E-07
  -8.29999968E-02   2.02784705E-07
  -8.20000023E-02   1.94365100E-07
  -8.10000002E-02   1.84581197E-07
  -7.99999982E-02   1.80543793E-07
  -7.90000036E-02   1.89143208E-07
  -7.80000016E-02   2.15738126E-07
  -7.69999996E-02   2.63137736E-07
  -7.59999976E-02   3.31100694E-07
  -7.50000030E-02   4.16460693E-07
  -7.40000010E-02   5.13849216E-07
  -7.29999989E-02   6.16854152E-07
  -7.19999969E-02   7.19365801E-07
  -7.10000023E-02   8.16832710E-07
  -7.00000003E-02   9.07189872E-07
  -6.89999983E-02   9.91307616E-07
  -6.80000037E-02   1.07292328E-06
  -6.70000017E-02   1.15812190E-06
  -6.59999996E-02   1.25450595E-06
  -6.49999976E-02   1.37022857E-06
  -6.40000030E-02   1.51305278E-06
  -6.30000010E-02   1.68956569E-06
  -6.19999990E-02   1.90462788E-06
  -6.10000007E-02   2.16109879E-06
  -5.99999987E-02   2.45984779E-06
  -5.90000004E-02   2.80004019E-06
  -5.79999983E-02   3.17967374E-06
  -5.70000000E-02   3.59631326E-06
  -5.60000017E-02   4.04794764E-06
  -5.49999997E-02   4.53385155E-06
  -5.40000014E-02   5.05531762E-06
  -5.29999994E-02   5.61612342E-06
  -5.20000011E-02   6.22262405E-06
  -5.09999990E-02   6.88344744E-06
  -5.00000007E-02   7.60883768E-06
  -4.89999987E-02   8.40979828E-06
  -4.80000004E-02   9.29723046E-06
  -4.69999984E-02   1.02812728E-05
  -4.60000001E-02   1.13709984E-05
  -4.50000018E-02   1.25745291E-05
  -4.39999998E-02   1.38995101E-05
  -4.30000015E-02   1.53537876E-05
  -4.19999994E-02   1.69460945E-05
  -4.10000011E-02   1.86865273E-05
  -3.99999991E-02   2.05867182E-05
  -3.90000008E-02   2.26596712E-05
  -3.79999988E-02   2.49193818E-05
  -3.70000005E-02   2.73803853E-05
  -3.59999985E-02   3.00574538E-05
  -3.50000001E-02   3.29655559E-05
  -3.40000018E-02   3.61201564E-05
  -3.29999998E-02   3.95377319E-05
  -3.20000015E-02   4.32364031E-05
  -3.09999995E-02   4.72364591E-05
  -2.99999993E-02   5.15606189E-05
  -2.89999992E-02   5.62339665E-05
  -2.80000009E-02   6.12836011E-05
  -2.70000007E-02   6.67380955E-05
  -2.60000005E-02   7.26270227E-05
  -2.50000004E-02   7.89806945E-05
  -2.40000002E-02   8.58301646E-05
  -2.30000000E-02   9.32075855E-05
  -2.19999999E-02   1.01146696E-04
  -2.09999997E-02   1.09683344E-04
  -1.99999996E-02   1.18855736E-04
  -1.89999994E-02   1.28704414E-04
  -1.79999992E-02   1.39271739E-04
  -1.70000009E-02   1.50601249E-04
  -1.60000008E-02   1.62736760E-04
  -1.49999997E-02   1.75721783E-04
  -1.40000004E-02   1.89599246E-04
  -1.30000003E-02   2.04411772E-04
  -1.20000001E-02   2.20202623E-04
  -1.09999999E-02   2.37016880E-04
  -9.99999978E-03   2.54902843E-04
  -8.99999961E-03   2.73913232E-04
  -8.00000038E-03   2.94105965E-04
  -7.00000022E-03   3.15544225E-04
  -6.00000005E-03   3.38295678E-04
  -4.99999989E-03   3.62431339E-04
  -4.00000019E-03   3.88023705E-04
  -3.00000003E-03   4.15145128E-04
  -2.00000009E-03   4.43866214E-04
  -1.00000005E-03   4.74255037E-04
   0.00000000       5.06376964E-04
   1.00000005E-03   5.40295383E-04
   2.00000009E-03   5.76072838E-04
   3.00000003E-03   6.13772601E-04
   4.00000019E-03   6.53460389E-04
   4.99999989E-03   6.95205468E-04
   6.00000005E-03   7.39081181E-04
   7.00000022E-03   7.85164826E-04
   8.00000038E-03   8.33536731E-04
   8.99999961E-03   8.84279143E-04
   9.99999978E-03   9.37474368E-04
   1.09999999E-02   9.93203488E-04
   1.20000001E-02   1.05154526E-03
   1.30000003E-02   1.11257553E-03
   1.40000004E-02   1.17636693E-03
   1.49999997E-02   1.24298944E-03
   1.60000008E-02   1.31251093E-03
   1.70000009E-02   1.38499774E-03
   1.79999992E-02   1.46051496E-03
   1.89999994E-02   1.53912744E-03
   1.99999996E-02   1.62089895E-03
   2.09999997E-02   1.70589308E-03
   2.19999999E-02   1.79417245E-03
   2.30000000E-02   1.88579923E-03
   2.40000002E-02   1.98083441E-03
   2.50000004E-02   2.07933877E-03
   2.60000005E-02   2.18137121E-03
   2.70000007E-02   2.28698878E-03
   2.80000009E-02   2.39624619E-03
   2.89999992E-02   2.50919373E-03
   2.99999993E-02   2.62587634E-03
   3.09999995E-02   2.74633197E-03
   3.20000015E-02   2.87059159E-03
   3.29999998E-02   2.99867848E-03
   3.40000018E-02   3.13060940E-03
   3.50000001E-02   3.26639460E-03
   3.59999985E-02   3.40604084E-03
   3.70000005E-02   3.54955089E-03
   3.79999988E-02   3.69692617E-03
   3.90000008E-02   3.84816737E-03
   3.99999991E-02   4.00327425E-03
   4.10000011E-02   4.16224496E-03
   4.19999994E-02   4.32507601E-03
   4.30000015E-02   4.49175946E-03
   4.39999998E-02   4.66228370E-03
   4.50000018E-02   4.83663008E-03
   4.60000001E-02   5.01477253E-03
   4.69999984E-02   5.19667659E-03
   4.80000004E-02   5.38229942E-03
   4.89999987E-02   5.57158841E-03
   5.00000007E-02   5.76448161E-03
   5.09999990E-02   5.96090686E-03
   5.20000011E-02   6.16078451E-03
   5.29999994E-02   6.36402844E-03
   5.40000014E-02   6.57054642E-03
   5.49999997E-02   6.78024301E-03
   5.60000017E-02   6.99302135E-03
   5.70000000E-02   7.20878271E-03
   5.79999983E-02   7.42742838E-03
   5.90000004E-02   7.64885964E-03
   5.99999987E-02   7.87297450E-03
   6.10000007E-02   8.09966680E-03
   6.19999990E-02   8.32882524E-03
   6.30000010E-02   8.56033061E-03
   6.40000030E-02   8.79405160E-03
   6.49999976E-02   9.02984757E-03
   6.59999996E-02   9.26756673E-03
   6.70000017E-02   9.50704794E-03
   6.80000037E-02   9.74812452E-03
   6.89999983E-02   9.99062136E-03
   7.00000003E-02   1.02343606E-02
   7.10000023E-02   1.04791634E-02
   7.19999969E-02   1.07248500E-02
   7.29999989E-02   1.09712407E-02
   7.40000010E-02   1.12181539E-02
   7.50000030E-02   1.14654107E-02
   7.59999976E-02   1.17128296E-02
   7.69999996E-02   1.19602252E-02
   7.80000016E-02   1.22074084E-02
   7.90000036E-02   1.24541875E-02
   7.99999982E-02   1.27003621E-02
   8.10000002E-02   1.29457274E-02
   8.20000023E-02   1.31900739E-02
   8.29999968E-02   1.34331873E-02
   8.39999989E-02   1.36748487E-02
   8.50000009E-02   1.39148422E-02
   8.60000029E-02   1.41529497E-02
   8.69999975E-02   1.43889580E-02
   8.79999995E-02   1.46226585E-02
   8.90000015E-02   1.48538463E-02
   9.00000036E-02   1.50823221E-02
   9.09999982E-02   1.53078912E-02
   9.20000002E-02   1.55303618E-02
   9.30000022E-02   1.57495439E-02
   9.39999968E-02   1.59652457E-02
   9.49999988E-02   1.61772817E-02
   9.60000008E-02   1.63854621E-02
   9.70000029E-02   1.65895987E-02
   9.79999974E-02   1.67895053E-02
   9.89999995E-02   1.69850010E-02
  0.100000001       1.71759073E-02
  0.101000004       1.73620563E-02
  0.101999998       1.75432879E-02
  0.103000000       1.77194495E-02
  0.104000002       1.78904012E-02
  0.104999997       1.80560183E-02
  0.105999999       1.82161834E-02
  0.107000001       1.83707941E-02
  0.108000003       1.85197610E-02
  0.108999997       1.86630022E-02
  0.109999999       1.88004430E-02
  0.111000001       1.89320222E-02
  0.112000003       1.90576762E-02
  0.112999998       1.91773511E-02
  0.114000000       1.92909967E-02
  0.115000002       1.93985701E-02
  0.115999997       1.95000358E-02
  0.116999999       1.95953697E-02
  0.118000001       1.96845569E-02
  0.119000003       1.97675973E-02
  0.119999997       1.98445022E-02
  0.120999999       1.99152976E-02
  0.122000001       1.99800208E-02
  0.123000003       2.00387239E-02
  0.123999998       2.00914759E-02
  0.125000000       2.01383531E-02
  0.126000002       2.01794449E-02
  0.127000004       2.02148557E-02
  0.128000006       2.02446971E-02
  0.128999993       2.02690847E-02
  0.129999995       2.02881452E-02
  0.130999997       2.03020051E-02
  0.131999999       2.03107949E-02
  0.133000001       2.03146450E-02
  0.134000003       2.03136858E-02
  0.135000005       2.03080475E-02
  0.136000007       2.02978626E-02
  0.136999995       2.02832669E-02
  0.137999997       2.02644076E-02
  0.138999999       2.02414356E-02
  0.140000001       2.02145092E-02
  0.141000003       2.01837979E-02
  0.142000005       2.01494806E-02
  0.143000007       2.01117415E-02
  0.143999994       2.00707689E-02
  0.144999996       2.00267509E-02
  0.145999998       1.99798755E-02
  0.147000000       1.99303254E-02
  0.148000002       1.98782794E-02
  0.149000004       1.98239144E-02
  0.150000006       1.97673999E-02
  0.150999993       1.97088942E-02
  0.151999995       1.96485575E-02
  0.152999997       1.95865426E-02
  0.153999999       1.95229966E-02
  0.155000001       1.94580648E-02
  0.156000003       1.93918850E-02
  0.157000005       1.93245951E-02
  0.158000007       1.92563273E-02
  0.158999994       1.91872139E-02
  0.159999996       1.91173851E-02
  0.160999998       1.90469641E-02
  0.162000000       1.89760756E-02
  0.163000003       1.89048368E-02
  0.164000005       1.88333597E-02
  0.165000007       1.87617540E-02
  0.165999994       1.86901223E-02
  0.166999996       1.86185613E-02
  0.167999998       1.85471606E-02
  0.169000000       1.84760038E-02
  0.170000002       1.84051711E-02
  0.171000004       1.83347333E-02
  0.172000006       1.82647575E-02
  0.172999993       1.81953032E-02
  0.173999995       1.81264263E-02
  0.174999997       1.80581752E-02
  0.175999999       1.79905947E-02
  0.177000001       1.79237183E-02
  0.178000003       1.78575795E-02
  0.179000005       1.77922025E-02
  0.180000007       1.77276116E-02
  0.180999994       1.76638234E-02
  0.181999996       1.76008549E-02
  0.182999998       1.75387207E-02
  0.184000000       1.74774323E-02
  0.185000002       1.74170006E-02
  0.186000004       1.73574369E-02
  0.187000006       1.72987487E-02
  0.187999994       1.72409434E-02
  0.188999996       1.71840265E-02
  0.189999998       1.71280038E-02
  0.191000000       1.70728788E-02
  0.192000002       1.70186497E-02
  0.193000004       1.69653185E-02
  0.194000006       1.69128776E-02
  0.194999993       1.68613195E-02
  0.195999995       1.68106332E-02
  0.196999997       1.67608000E-02
  0.197999999       1.67118032E-02
  0.199000001       1.66636184E-02
  0.200000003       1.66162234E-02
  0.201000005       1.65695921E-02
  0.202000007       1.65237021E-02
  0.202999994       1.64785348E-02
  0.203999996       1.64340716E-02
  0.204999998       1.63903031E-02
  0.206000000       1.63472202E-02
  0.207000002       1.63048133E-02
  0.208000004       1.62630808E-02
  0.209000006       1.62220169E-02
  0.209999993       1.61816161E-02
  0.210999995       1.61418747E-02
  0.211999997       1.61027797E-02
  0.213000000       1.60643216E-02
  0.214000002       1.60264857E-02
  0.215000004       1.59892533E-02
  0.216000006       1.59526095E-02
  0.216999993       1.59165375E-02
  0.217999995       1.58810206E-02
  0.218999997       1.58460438E-02
  0.219999999       1.58115961E-02
  0.221000001       1.57776643E-02
  0.222000003       1.57442391E-02
  0.223000005       1.57113094E-02
  0.224000007       1.56788696E-02
  0.224999994       1.56469103E-02
  0.225999996       1.56154288E-02
  0.226999998       1.55844186E-02
  0.228000000       1.55538758E-02
  0.229000002       1.55237988E-02
  0.230000004       1.54941883E-02
  0.231000006       1.54650426E-02
  0.231999993       1.54363625E-02
  0.232999995       1.54081453E-02
  0.233999997       1.53803872E-02
  0.234999999       1.53530836E-02
  0.236000001       1.53262252E-02
  0.237000003       1.52998026E-02
  0.238000005       1.52738066E-02
  0.238999993       1.52482260E-02
  0.239999995       1.52230505E-02
  0.240999997       1.51982736E-02
  0.241999999       1.51738888E-02
  0.243000001       1.51498932E-02
  0.244000003       1.51262842E-02
  0.245000005       1.51030626E-02
  0.246000007       1.50802266E-02
  0.246999994       1.50577761E-02
  0.247999996       1.50357094E-02
  0.248999998       1.50140226E-02
  0.250000000       1.49927130E-02
  0.250999987       1.49717741E-02
  0.252000004       1.49512002E-02
  0.252999991       1.49309840E-02
  0.254000008       1.49111198E-02
  0.254999995       1.48916030E-02
  0.256000012       1.48724299E-02
  0.256999999       1.48535976E-02
  0.257999986       1.48351053E-02
  0.259000003       1.48169510E-02
  0.259999990       1.47991339E-02
  0.261000007       1.47816502E-02
  0.261999995       1.47644961E-02
  0.263000011       1.47476671E-02
  0.263999999       1.47311538E-02
  0.264999986       1.47149470E-02
  0.266000003       1.46990363E-02
  0.266999990       1.46834133E-02
  0.268000007       1.46680679E-02
  0.268999994       1.46529926E-02
  0.270000011       1.46381836E-02
  0.270999998       1.46236364E-02
  0.272000015       1.46093499E-02
  0.273000002       1.45953242E-02
  0.273999989       1.45815592E-02
  0.275000006       1.45680550E-02
  0.275999993       1.45548135E-02
  0.277000010       1.45418346E-02
  0.277999997       1.45291155E-02
  0.279000014       1.45166554E-02
  0.280000001       1.45044494E-02
  0.280999988       1.44924931E-02
  0.282000005       1.44807780E-02
  0.282999992       1.44692948E-02
  0.284000009       1.44580333E-02
  0.284999996       1.44469803E-02
  0.286000013       1.44361248E-02
  0.287000000       1.44254575E-02
  0.287999988       1.44149708E-02
  0.289000005       1.44046582E-02
  0.289999992       1.43945161E-02
  0.291000009       1.43845435E-02
  0.291999996       1.43747423E-02
  0.293000013       1.43651124E-02
  0.294000000       1.43556558E-02
  0.294999987       1.43463723E-02
  0.296000004       1.43372612E-02
  0.296999991       1.43283214E-02
  0.298000008       1.43195530E-02
  0.298999995       1.43109560E-02
  0.300000012       1.43025285E-02
  0.300999999       1.42942695E-02
  0.301999986       1.42861763E-02
  0.303000003       1.42782480E-02
  0.303999990       1.42704770E-02
  0.305000007       1.42628560E-02
  0.305999994       1.42553747E-02
  0.307000011       1.42480247E-02
  0.307999998       1.42407930E-02
  0.308999985       1.42336711E-02
  0.310000002       1.42266518E-02
  0.310999990       1.42197311E-02
  0.312000006       1.42129092E-02
  0.312999994       1.42061906E-02
  0.314000010       1.41995819E-02
  0.314999998       1.41930897E-02
  0.316000015       1.41867222E-02
  0.317000002       1.41804889E-02
  0.317999989       1.41743952E-02
  0.319000006       1.41684432E-02
  0.319999993       1.41626336E-02
  0.321000010       1.41569618E-02
  0.321999997       1.41514214E-02
  0.323000014       1.41460029E-02
  0.324000001       1.41406963E-02
  0.324999988       1.41354892E-02
  0.326000005       1.41303735E-02
  0.326999992       1.41253425E-02
  0.328000009       1.41203916E-02
  0.328999996       1.41155217E-02
  0.330000013       1.41107338E-02
  0.331000000       1.41060315E-02
  0.331999987       1.41014187E-02
  0.333000004       1.40968980E-02
  0.333999991       1.40924724E-02
  0.335000008       1.40881417E-02
  0.335999995       1.40839042E-02
  0.337000012       1.40797589E-02
  0.338000000       1.40757011E-02
  0.338999987       1.40717290E-02
  0.340000004       1.40678389E-02
  0.340999991       1.40640289E-02
  0.342000008       1.40602961E-02
  0.342999995       1.40566379E-02
  0.344000012       1.40530532E-02
  0.344999999       1.40495393E-02
  0.345999986       1.40460925E-02
  0.347000003       1.40427090E-02
  0.347999990       1.40393851E-02
  0.349000007       1.40361190E-02
  0.349999994       1.40329078E-02
  0.351000011       1.40297487E-02
  0.351999998       1.40266409E-02
  0.352999985       1.40235834E-02
  0.354000002       1.40205733E-02
  0.354999989       1.40176117E-02
  0.356000006       1.40146967E-02
  0.356999993       1.40118292E-02
  0.358000010       1.40090082E-02
  0.358999997       1.40062366E-02
  0.360000014       1.40035124E-02
  0.361000001       1.40008349E-02
  0.361999989       1.39982030E-02
  0.363000005       1.39956139E-02
  0.363999993       1.39930658E-02
  0.365000010       1.39905540E-02
  0.365999997       1.39880758E-02
  0.367000014       1.39856301E-02
  0.368000001       1.39832171E-02
  0.368999988       1.39808375E-02
  0.370000005       1.39784953E-02
  0.370999992       1.39761921E-02
  0.372000009       1.39739299E-02
  0.372999996       1.39717115E-02
  0.374000013       1.39695341E-02
  0.375000000       1.39673939E-02
  0.375999987       1.39652863E-02
  0.377000004       1.39632057E-02
  0.377999991       1.39611475E-02
  0.379000008       1.39591089E-02
  0.379999995       1.39570907E-02
  0.381000012       1.39550949E-02
  0.381999999       1.39531270E-02
  0.382999986       1.39511945E-02
  0.384000003       1.39493030E-02
  0.384999990       1.39474533E-02
  0.386000007       1.39456466E-02
  0.386999995       1.39438789E-02
  0.388000011       1.39421429E-02
  0.388999999       1.39404312E-02
  0.389999986       1.39387343E-02
  0.391000003       1.39370477E-02
  0.391999990       1.39353685E-02
  0.393000007       1.39336986E-02
  0.393999994       1.39320437E-02
  0.395000011       1.39304092E-02
  0.395999998       1.39288036E-02
  0.397000015       1.39272334E-02
  0.398000002       1.39257014E-02
  0.398999989       1.39242075E-02
  0.400000006       1.39227482E-02
  0.400999993       1.39213167E-02
  0.402000010       1.39199058E-02
  0.402999997       1.39185060E-02
  0.404000014       1.39171099E-02
  0.405000001       1.39157120E-02
  0.405999988       1.39143104E-02
  0.407000005       1.39129041E-02
  0.407999992       1.39114959E-02
  0.409000009       1.39100924E-02
  0.409999996       1.39086982E-02
  0.411000013       1.39073208E-02
  0.412000000       1.39059676E-02
  0.412999988       1.39046442E-02
  0.414000005       1.39033543E-02
  0.414999992       1.39020998E-02
  0.416000009       1.39008807E-02
  0.416999996       1.38996942E-02
  0.418000013       1.38985338E-02
  0.419000000       1.38973920E-02
  0.419999987       1.38962595E-02
  0.421000004       1.38951270E-02
  0.421999991       1.38939871E-02
  0.423000008       1.38928341E-02
  0.423999995       1.38916662E-02
  0.425000012       1.38904843E-02
  0.425999999       1.38892950E-02
  0.426999986       1.38881067E-02
  0.428000003       1.38869286E-02
  0.428999990       1.38857709E-02
  0.430000007       1.38846412E-02
  0.430999994       1.38835451E-02
  0.432000011       1.38824834E-02
  0.432999998       1.38814533E-02
  0.433999985       1.38804512E-02
  0.435000002       1.38794687E-02
  0.435999990       1.38784992E-02
  0.437000006       1.38775343E-02
  0.437999994       1.38765685E-02
  0.439000010       1.38755990E-02
  0.439999998       1.38746230E-02
  0.441000015       1.38736423E-02
  0.442000002       1.38726598E-02
  0.442999989       1.38716772E-02
  0.444000006       1.38706984E-02
  0.444999993       1.38697252E-02
  0.446000010       1.38687603E-02
  0.446999997       1.38678066E-02
  0.448000014       1.38668660E-02
  0.449000001       1.38659403E-02
  0.449999988       1.38650313E-02
  0.451000005       1.38641391E-02
  0.451999992       1.38632646E-02
  0.453000009       1.38624068E-02
  0.453999996       1.38615621E-02
  0.455000013       1.38607286E-02
  0.456000000       1.38599025E-02
  0.456999987       1.38590820E-02
  0.458000004       1.38582662E-02
  0.458999991       1.38574559E-02
  0.460000008       1.38566550E-02
  0.460999995       1.38558652E-02
  0.462000012       1.38550913E-02
  0.463000000       1.38543360E-02
  0.463999987       1.38535984E-02
  0.465000004       1.38528766E-02
  0.465999991       1.38521679E-02
  0.467000008       1.38514666E-02
  0.467999995       1.38507690E-02
  0.469000012       1.38500715E-02
  0.469999999       1.38493748E-02
  0.470999986       1.38486819E-02
  0.472000003       1.38479983E-02
  0.472999990       1.38473297E-02
  0.474000007       1.38466833E-02
  0.474999994       1.38460631E-02
  0.476000011       1.38454689E-02
  0.476999998       1.38448998E-02
  0.477999985       1.38443513E-02
  0.479000002       1.38438148E-02
  0.479999989       1.38432840E-02
  0.481000006       1.38427541E-02
  0.481999993       1.38422223E-02
  0.483000010       1.38416858E-02
  0.483999997       1.38411466E-02
  0.485000014       1.38406055E-02
  0.486000001       1.38400644E-02
  0.486999989       1.38395252E-02
  0.488000005       1.38389887E-02
  0.488999993       1.38384551E-02
  0.490000010       1.38379252E-02
  0.490999997       1.38373980E-02
  0.492000014       1.38368765E-02
  0.493000001       1.38363624E-02
  0.493999988       1.38358595E-02
  0.495000005       1.38353696E-02
  0.495999992       1.38348928E-02
  0.497000009       1.38344290E-02
  0.497999996       1.38339726E-02
  0.499000013       1.38335181E-02
  0.500000000       1.38330581E-02
  0.500999987       1.38325877E-02
  0.501999974       1.38321007E-02
  0.503000021       1.38315959E-02
  0.504000008       1.38310743E-02
  0.504999995       1.38305398E-02
  0.505999982       1.38299959E-02
  0.507000029       1.38294492E-02
  0.508000016       1.38289044E-02
  0.509000003       1.38283623E-02
  0.509999990       1.38278240E-02
  0.510999978       1.38272895E-02
  0.512000024       1.38267567E-02
  0.513000011       1.38262250E-02
  0.513999999       1.38256941E-02
  0.514999986       1.38251632E-02
  0.515999973       1.38246352E-02
  0.517000020       1.38241127E-02
  0.518000007       1.38235968E-02
  0.518999994       1.38230901E-02
  0.519999981       1.38225919E-02
  0.521000028       1.38220992E-02
  0.522000015       1.38216093E-02
  0.523000002       1.38211157E-02
  0.523999989       1.38206109E-02
  0.524999976       1.38200903E-02
  0.526000023       1.38195492E-02
  0.527000010       1.38189867E-02
  0.527999997       1.38184037E-02
  0.528999984       1.38178086E-02
  0.529999971       1.38172079E-02
  0.531000018       1.38166128E-02
  0.532000005       1.38160344E-02
  0.532999992       1.38154831E-02
  0.533999979       1.38149653E-02
  0.535000026       1.38144828E-02
  0.536000013       1.38140339E-02
  0.537000000       1.38136130E-02
  0.537999988       1.38132097E-02
  0.538999975       1.38128148E-02
  0.540000021       1.38124181E-02
  0.541000009       1.38120102E-02
  0.541999996       1.38115864E-02
  0.542999983       1.38111413E-02
  0.544000030       1.38106756E-02
  0.545000017       1.38101894E-02
  0.546000004       1.38096865E-02
  0.546999991       1.38091724E-02
  0.547999978       1.38086528E-02
  0.549000025       1.38081349E-02
  0.550000012       1.38076283E-02
  0.550999999       1.38071403E-02
  0.551999986       1.38066802E-02
  0.552999973       1.38062537E-02
  0.554000020       1.38058662E-02
  0.555000007       1.38055170E-02
  0.555999994       1.38052031E-02
  0.556999981       1.38049191E-02
  0.558000028       1.38046546E-02
  0.559000015       1.38044003E-02
  0.560000002       1.38041480E-02
  0.560999990       1.38038900E-02
  0.561999977       1.38036227E-02
  0.563000023       1.38033470E-02
  0.564000010       1.38030658E-02
  0.564999998       1.38027836E-02
  0.565999985       1.38025070E-02
  0.566999972       1.38022406E-02
  0.568000019       1.38019910E-02
  0.569000006       1.38017610E-02
  0.569999993       1.38015533E-02
  0.570999980       1.38013726E-02
  0.572000027       1.38012189E-02
  0.573000014       1.38010932E-02
  0.574000001       1.38009964E-02
  0.574999988       1.38009274E-02
  0.575999975       1.38008837E-02
  0.577000022       1.38008641E-02
  0.578000009       1.38008650E-02
  0.578999996       1.38008846E-02
  0.579999983       1.38009218E-02
  0.580999970       1.38009759E-02
  0.582000017       1.38010485E-02
  0.583000004       1.38011416E-02
  0.583999991       1.38012543E-02
  0.584999979       1.38013875E-02
  0.586000025       1.38015393E-02
  0.587000012       1.38017042E-02
  0.588000000       1.38018755E-02
  0.588999987       1.38020469E-02
  0.589999974       1.38022108E-02
  0.591000021       1.38023645E-02
  0.592000008       1.38025051E-02
  0.592999995       1.38026364E-02
  0.593999982       1.38027631E-02
  0.595000029       1.38028953E-02
  0.596000016       1.38030415E-02
  0.597000003       1.38032120E-02
  0.597999990       1.38034141E-02
  0.598999977       1.38036497E-02
  0.600000024       1.38039188E-02
  0.601000011       1.38042131E-02
  0.601999998       1.38045223E-02
  0.602999985       1.38048334E-02
  0.603999972       1.38051314E-02
  0.605000019       1.38054034E-02
  0.606000006       1.38056381E-02
  0.606999993       1.38058309E-02
  0.607999980       1.38059789E-02
  0.609000027       1.38060860E-02
  0.610000014       1.38061577E-02
  0.611000001       1.38062034E-02
  0.611999989       1.38062304E-02
  0.612999976       1.38062434E-02
  0.614000022       1.38062472E-02
  0.615000010       1.38062406E-02
  0.615999997       1.38062211E-02
  0.616999984       1.38061848E-02
  0.617999971       1.38061270E-02
  0.619000018       1.38060441E-02
  0.620000005       1.38059342E-02
  0.620999992       1.38057964E-02
  0.621999979       1.38056306E-02
  0.623000026       1.38054369E-02
  0.624000013       1.38052134E-02
  0.625000000       1.38049582E-02
  0.625999987       1.38046686E-02
  0.626999974       1.38043398E-02
  0.628000021       1.38039682E-02
  0.629000008       1.38035519E-02
  0.629999995       1.38030928E-02
  0.630999982       1.38025945E-02
  0.632000029       1.38020637E-02
  0.633000016       1.38015067E-02
  0.634000003       1.38009293E-02
  0.634999990       1.38003360E-02
  0.635999978       1.37997288E-02
  0.637000024       1.37991067E-02
  0.638000011       1.37984678E-02
  0.638999999       1.37978084E-02
  0.639999986       1.37971286E-02
  0.640999973       1.37964291E-02
  0.642000020       1.37957148E-02
  0.643000007       1.37949903E-02
  0.643999994       1.37942620E-02
  0.644999981       1.37935374E-02
  0.646000028       1.37928221E-02
  0.647000015       1.37921199E-02
  0.648000002       1.37914317E-02
  0.648999989       1.37907574E-02
  0.649999976       1.37900980E-02
  0.651000023       1.37894563E-02
  0.652000010       1.37888342E-02
  0.652999997       1.37882344E-02
  0.653999984       1.37876607E-02
  0.654999971       1.37871141E-02
  0.656000018       1.37865953E-02
  0.657000005       1.37861045E-02
  0.657999992       1.37856416E-02
  0.658999979       1.37852067E-02
  0.660000026       1.37848016E-02
  0.661000013       1.37844309E-02
  0.662000000       1.37841012E-02
  0.662999988       1.37838209E-02
  0.663999975       1.37835983E-02
  0.665000021       1.37834400E-02
  0.666000009       1.37833487E-02
  0.666999996       1.37833254E-02
  0.667999983       1.37833636E-02
  0.669000030       1.37834558E-02
  0.670000017       1.37835918E-02
  0.671000004       1.37837613E-02
  0.671999991       1.37839569E-02
  0.672999978       1.37841720E-02
  0.674000025       1.37844058E-02
  0.675000012       1.37846582E-02
  0.675999999       1.37849329E-02
  0.676999986       1.37852328E-02
  0.677999973       1.37855625E-02
  0.679000020       1.37859238E-02
  0.680000007       1.37863168E-02
  0.680999994       1.37867406E-02
  0.681999981       1.37871914E-02
  0.683000028       1.37876626E-02
  0.684000015       1.37881478E-02
  0.685000002       1.37886386E-02
  0.685999990       1.37891294E-02
  0.686999977       1.37896137E-02
  0.688000023       1.37900868E-02
  0.689000010       1.37905441E-02
  0.689999998       1.37909828E-02
  0.690999985       1.37914009E-02
  0.691999972       1.37917968E-02
  0.693000019       1.37921683E-02
  0.694000006       1.37925120E-02
  0.694999993       1.37928249E-02
  0.695999980       1.37931025E-02