 -0.159999996       0.00000000    
 -0.158999994       0.00000000    
 -0.158000007       0.00000000    
 -0.157000005       0.00000000    
 -0.156000003       0.00000000    
 -0.155000001       0.00000000    
 -0.153999999      -5.07347569E-24
 -0.152999997      -2.88786453E-23
 -0.151999995      -1.70872163E-23
 -0.150999993       4.55694123E-22
 -0.150000006       2.63665395E-21
 -0.149000004       8.32683302E-21
 -0.148000002       1.71462990E-20
 -0.147000000       2.03240086E-20
 -0.145999998      -5.64441514E-21
 -0.144999996      -9.49055724E-20
 -0.143999994      -2.63682173E-19
 -0.143000007      -4.54784108E-19
 -0.142000005      -4.86078987E-19
 -0.141000003      -7.55509742E-20
 -0.140000001       9.76745621E-19
 -0.138999999       2.45249725E-18
 -0.137999997       3.42219157E-18
 -0.136999995       2.41831277E-18
 -0.136000007      -1.46315915E-18
 -0.135000005      -6.49868203E-18
 -0.134000003      -6.30506676E-18
 -0.133000001       9.84393071E-18
 -0.131999999       5.13576755E-17
 -0.130999997       1.13681721E-16
 -0.129999995       1.61486236E-16
 -0.128999993       1.17672477E-16
 -0.128000006      -1.25017603E-16
 -0.127000004      -6.52343430E-16
 -0.126000002      -1.43155694E-15
 -0.125000000      -2.19214033E-15
 -0.123999998      -2.34706456E-15
 -0.123000003      -1.05119033E-15
 -0.122000001       2.50635397E-15
 -0.120999999       8.54139045E-15
 -0.119999997       1.59490155E-14
 -0.119000003       2.17066677E-14
 -0.118000001       2.08696840E-14
 -0.116999999       7.65923190E-15
 -0.115999997      -2.20751558E-14
 -0.115000002      -6.72708281E-14
 -0.114000000      -1.17983029E-13
 -0.112999998      -1.53463912E-13
 -0.112000003      -1.44220587E-13
 -0.111000001      -5.98297995E-14
 -0.109999999       1.17332630E-13
 -0.108999997       3.75004579E-13
 -0.108000003       6.56325580E-13
 -0.107000001       8.55655228E-13
 -0.105999999       8.33208069E-13
 -0.104999997       4.53306771E-13
 -0.104000002      -3.56457783E-13
 -0.103000000      -1.53824891E-12
 -0.101999998      -2.85255435E-12
 -0.101000004      -3.87145654E-12
 -0.100000001      -4.04247165E-12
  -9.89999995E-02  -2.83352356E-12
  -9.79999974E-02   5.70869849E-14
  -9.70000029E-02   4.47448675E-12
  -9.60000008E-02   9.64194523E-12
  -9.49999988E-02   1.41449682E-11
  -9.39999968E-02   1.61361636E-11
  -9.30000022E-02   1.37817440E-11
  -9.20000002E-02   5.89215439E-12
  -9.09999982E-02  -7.40868478E-12
  -9.00000036E-02  -2.41904691E-11
  -8.90000015E-02  -4.06339823E-11
  -8.79999995E-02  -5.15375277E-11
  -8.69999975E-02  -5.14547328E-11
  -8.60000029E-02  -3.63099655E-11
  -8.50000009E-02  -5.12942249E-12
  -8.39999989E-02   3.86270738E-11
  -8.29999968E-02   8.66784144E-11
  -8.20000023E-02   1.26884170E-10
  -8.10000002E-02   1.45651310E-10
  -7.99999982E-02   1.31454791E-10
  -7.90000036E-02   7.87065135E-11
  -7.80000016E-02  -9.09687343E-12
  -7.69999996E-02  -1.18061450E-10
  -7.59999976E-02  -2.25242200E-10
  -7.50000030E-02  -3.02859904E-10
  -7.40000010E-02  -3.24790278E-10
  -7.29999989E-02  -2.73928075E-10
  -7.19999969E-02  -1.48492399E-10
  -7.10000023E-02   3.47172326E-11
  -7.00000003E-02   2.41574039E-10
  -6.89999983E-02   4.26785468E-10
  -6.80000037E-02   5.44003731E-10
  -6.70000017E-02   5.57635993E-10
  -6.59999996E-02   4.53286214E-10
  -6.49999976E-02   2.43735448E-10
  -6.40000030E-02  -3.17443537E-11
  -6.30000010E-02  -3.15287241E-10
  -6.19999990E-02  -5.44056300E-10
  -6.10000007E-02  -6.66281363E-10
  -5.99999987E-02  -6.55356269E-10
  -5.90000004E-02  -5.17791254E-10
  -5.79999983E-02  -2.92247254E-10
  -5.70000000E-02  -3.92923749E-11
  -5.60000017E-02   1.75723922E-10
  -5.49999997E-02   3.02000924E-10
  -5.40000014E-02   3.19084592E-10
  -5.29999994E-02   2.44010173E-10
  -5.20000011E-02   1.26916422E-10
  -5.09999990E-02   3.55996795E-11
  -5.00000007E-02   3.29667960E-11
  -4.89999987E-02   1.53913202E-10
  -4.80000004E-02   3.88919480E-10
  -4.69999984E-02   6.80232703E-10
  -4.60000001E-02   9.33138011E-10
  -4.50000018E-02   1.04041165E-09
  -4.39999998E-02   9.13855602E-10
  -4.30000015E-02   5.14144227E-10
  -4.19999994E-02  -1.30008365E-10
  -4.10000011E-02  -9.19902154E-10
  -3.99999991E-02  -1.70410985E-09
  -3.90000008E-02  -2.31151476E-09
  -3.79999988E-02  -2.59200639E-09
  -3.70000005E-02  -2.45416354E-09
  -3.59999985E-02  -1.88969196E-09
  -3.50000001E-02  -9.77778525E-10
  -3.40000018E-02   1.32045708E-10
  -3.29999998E-02   1.25402144E-09
  -3.20000015E-02   2.20807772E-09
  -3.09999995E-02   2.85832491E-09
  -2.99999993E-02   3.13809045E-09
  -2.89999992E-02   3.05551917E-09
  -2.80000009E-02   2.67946509E-09
  -2.70000007E-02   2.11104489E-09
  -2.60000005E-02   1.45013435E-09
  -2.50000004E-02   7.67146791E-10
  -2.40000002E-02   8.84036247E-11
  -2.30000000E-02  -6.01025008E-10
  -2.19999999E-02  -1.33856315E-09
  -2.09999997E-02  -2.15580642E-09
  -1.99999996E-02  -3.04976888E-09
  -1.89999994E-02  -3.96288646E-09
  -1.79999992E-02  -4.77841855E-09
  -1.70000009E-02  -5.33361666E-09
  -1.60000008E-02  -5.44832979E-09
  -1.49999997E-02  -4.96288033E-09
  -1.40000004E-02  -3.77696097E-09
  -1.30000003E-02  -1.88128757E-09
  -1.20000001E-02   6.24517660E-10
  -1.09999999E-02   3.53155016E-09
  -9.99999978E-03   6.53943433E-09
  -8.99999961E-03   9.29025301E-09
  -8.00000038E-03   1.14143983E-08
  -7.00000022E-03   1.25825954E-08
  -6.00000005E-03   1.25572708E-08
  -4.99999989E-03   1.12357563E-08
  -4.00000019E-03   8.67778738E-09
  -3.00000003E-03   5.11075804E-09
  -2.00000009E-03   9.08665365E-10
  -1.00000005E-03  -3.45520612E-09
   0.00000000      -7.47653317E-09
   1.00000005E-03  -1.06983125E-08
   2.00000009E-03  -1.27844499E-08
   3.00000003E-03  -1.35725342E-08
   4.00000019E-03  -1.30926479E-08
   4.99999989E-03  -1.15459065E-08
   6.00000005E-03  -9.24609811E-09
   7.00000022E-03  -6.53777388E-09
   8.00000038E-03  -3.71163345E-09
   8.99999961E-03  -9.40426736E-10
   9.99999978E-03   1.74550097E-09
   1.09999999E-02   4.43399717E-09
   1.20000001E-02   7.26292493E-09
   1.30000003E-02   1.03263815E-08
   1.40000004E-02   1.35831302E-08
   1.49999997E-02   1.67970988E-08
   1.60000008E-02   1.95331964E-08
   1.70000009E-02   2.12176410E-08
   1.79999992E-02   2.12540101E-08
   1.89999994E-02   1.91693275E-08
   1.99999996E-02   1.47535086E-08
   2.09999997E-02   8.15406320E-09
   2.19999999E-02  -1.03174920E-10
   2.30000000E-02  -9.17906284E-09
   2.40000002E-02  -1.80623481E-08
   2.50000004E-02  -2.57577337E-08
   2.60000005E-02  -3.14787876E-08
   2.70000007E-02  -3.48013991E-08
   2.80000009E-02  -3.57424952E-08
   2.89999992E-02  -3.47465168E-08
   2.99999993E-02  -3.25842109E-08
   3.09999995E-02  -3.01889109E-08
   3.20000015E-02  -2.84696160E-08
   3.29999998E-02  -2.81442567E-08
   3.40000018E-02  -2.96301739E-08
   3.50000001E-02  -3.30139009E-08
   3.59999985E-02  -3.81027547E-08
   3.70000005E-02  -4.45414763E-08
   3.79999988E-02  -5.19627719E-08
   3.90000008E-02  -6.01340417E-08
   3.99999991E-02  -6.90650523E-08
   4.10000011E-02  -7.90515600E-08
   4.19999994E-02  -9.06457061E-08
   4.30000015E-02  -1.04561153E-07
   4.39999998E-02  -1.21535948E-07
   4.50000018E-02  -1.42186011E-07
   4.60000001E-02  -1.66884618E-07
   4.69999984E-02  -1.95698064E-07
   4.80000004E-02  -2.28395677E-07
   4.89999987E-02  -2.64536169E-07
   5.00000007E-02  -3.03615053E-07
   5.09999990E-02  -3.45243024E-07
   5.20000011E-02  -3.89316767E-07
   5.29999994E-02  -4.36143551E-07
   5.40000014E-02  -4.86488943E-07
   5.49999997E-02  -5.41534348E-07
   5.60000017E-02  -6.02750731E-07
   5.70000000E-02  -6.71716066E-07
   5.79999983E-02  -7.49917547E-07
   5.90000004E-02  -8.38587084E-07
   5.99999987E-02  -9.38610754E-07
   6.10000007E-02  -1.05053766E-06
   6.19999990E-02  -1.17468903E-06
   6.30000010E-02  -1.31134482E-06
   6.40000030E-02  -1.46096374E-06
   6.49999976E-02  -1.62438334E-06
   6.59999996E-02  -1.80295069E-06
   6.70000017E-02  -1.99855140E-06
   6.80000037E-02  -2.21352616E-06
   6.89999983E-02  -2.45049659E-06
   7.00000003E-02  -2.71213867E-06
   7.10000023E-02  -3.00096372E-06
   7.19999969E-02  -3.31915589E-06
   7.29999989E-02  -3.66851214E-06
   7.40000010E-02  -4.05049741E-06
   7.50000030E-02  -4.46640843E-06
   7.59999976E-02  -4.91761148E-06
   7.69999996E-02  -5.40580368E-06
   7.80000016E-02  -5.93323830E-06
   7.90000036E-02  -6.50287257E-06
   7.99999982E-02  -7.11840130E-06
   8.10000002E-02  -7.78416961E-06
   8.20000023E-02  -8.50498327E-06
   8.29999968E-02  -9.28585268E-06
   8.39999989E-02  -1.01317282E-05
   8.50000009E-02  -1.10472738E-05
   8.60000029E-02  -1.20367376E-05
   8.69999975E-02  -1.31039515E-05
   8.79999995E-02  -1.42524605E-05
   8.90000015E-02  -1.54857698E-05
   9.00000036E-02  -1.68076604E-05
   9.09999982E-02  -1.82225085E-05
   9.20000002E-02  -1.97355348E-05
   9.30000022E-02  -2.13529202E-05
   9.39999968E-02  -2.30817423E-05
   9.49999988E-02  -2.49297555E-05
   9.60000008E-02  -2.69050197E-05
   9.70000029E-02  -2.90154821E-05
   9.79999974E-02  -3.12686025E-05
   9.89999995E-02  -3.36711164E-05
  0.100000001      -3.62289975E-05
  0.101000004      -3.89476481E-05
  0.101999998      -4.18322707E-05
  0.103000000      -4.48883511E-05
  0.104000002      -4.81221032E-05
  0.104999997      -5.15407737E-05
  0.105999999      -5.51526973E-05
  0.107000001      -5.89671108E-05
  0.108000003      -6.29937203E-05
  0.108999997      -6.72421302E-05
  0.109999999      -7.17213334E-05
  0.111000001      -7.64392971E-05
  0.112000003      -8.14028681E-05
  0.112999998      -8.66178962E-05
  0.114000000      -9.20896491E-05
  0.115000002      -9.78233220E-05
  0.115999997      -1.03824532E-04
  0.116999999      -1.10099652E-04
  0.118000001      -1.16655858E-04
  0.119000003      -1.23500868E-04
  0.119999997      -1.30642467E-04
  0.120999999      -1.38087955E-04
  0.122000001      -1.45843514E-04
  0.123000003      -1.53913905E-04
  0.123999998      -1.62302313E-04
  0.125000000      -1.71010601E-04
  0.126000002      -1.80039642E-04
  0.127000004      -1.89389932E-04
  0.128000006      -1.99061993E-04
  0.128999993      -2.09056700E-04
  0.129999995      -2.19375332E-04
  0.130999997      -2.30019374E-04
  0.131999999      -2.40990048E-04
  0.133000001      -2.52287777E-04
  0.134000003      -2.63911701E-04
  0.135000005      -2.75859318E-04
  0.136000007      -2.88126292E-04
  0.136999995      -3.00706597E-04
  0.137999997      -3.13592725E-04
  0.138999999      -3.26776062E-04
  0.140000001      -3.40247381E-04
  0.141000003      -3.53997049E-04
  0.142000005      -3.68015288E-04
  0.143000007      -3.82292143E-04
  0.143999994      -3.96817428E-04
  0.144999996      -4.11580317E-04
  0.145999998      -4.26569139E-04
  0.147000000      -4.41771001E-04
  0.148000002      -4.57171525E-04
  0.149000004      -4.72754822E-04
  0.150000006      -4.88503312E-04
  0.150999993      -5.04398078E-04
  0.151999995      -5.20418922E-04
  0.152999997      -5.36544714E-04
  0.153999999      -5.52753860E-04
  0.155000001      -5.69024589E-04
  0.156000003      -5.85335016E-04
  0.157000005      -6.01663371E-04
  0.158000007      -6.17988000E-04
  0.158999994      -6.34287193E-04
  0.159999996      -6.50538947E-04
  0.160999998      -6.66720967E-04
  0.162000000      -6.82810380E-04
  0.163000003      -6.98783784E-04
  0.164000005      -7.14617257E-04
  0.165000007      -7.30286585E-04
  0.165999994      -7.45767320E-04
  0.166999996      -7.61035131E-04
  0.167999998      -7.76065979E-04
  0.169000000      -7.90836115E-04
  0.170000002      -8.05322197E-04
  0.171000004      -8.19501176E-04
  0.172000006      -8.33350467E-04
  0.172999993      -8.46847775E-04
  0.173999995      -8.59971216E-04
  0.174999997      -8.72699427E-04
  0.175999999      -8.85011745E-04
  0.177000001      -8.96888319E-04
  0.178000003      -9.08310292E-04
  0.179000005      -9.19259968E-04
  0.180000007      -9.29720816E-04
  0.180999994      -9.39677644E-04
  0.181999996      -9.49116424E-04
  0.182999998      -9.58024408E-04
  0.184000000      -9.66390013E-04
  0.185000002      -9.74202878E-04
  0.186000004      -9.81453923E-04
  0.187000006      -9.88135347E-04
  0.187999994      -9.94240749E-04
  0.188999996      -9.99765005E-04
  0.189999998      -1.00470427E-03
  0.191000000      -1.00905611E-03
  0.192000002      -1.01281924E-03
  0.193000004      -1.01599400E-03
  0.194000006      -1.01858191E-03
  0.194999993      -1.02058635E-03
  0.195999995      -1.02201209E-03
  0.196999997      -1.02286576E-03
  0.197999999      -1.02315575E-03
  0.199000001      -1.02289207E-03
  0.200000003      -1.02208636E-03
  0.201000005      -1.02075166E-03
  0.202000007      -1.01890194E-03
  0.202999994      -1.01655268E-03
  0.203999996      -1.01372052E-03
  0.204999998      -1.01042329E-03
  0.206000000      -1.00668066E-03
  0.207000002      -1.00251404E-03
  0.208000004      -9.97946714E-04
  0.209000006      -9.93004069E-04
  0.209999993      -9.87713342E-04
  0.210999995      -9.82104102E-04
  0.211999997      -9.76207491E-04
  0.213000000      -9.70056630E-04
  0.214000002      -9.63686034E-04
  0.215000004      -9.57131910E-04
  0.216000006      -9.50431975E-04
  0.216999993      -9.43625520E-04
  0.217999995      -9.36753640E-04
  0.218999997      -9.29859059E-04
  0.219999999      -9.22986481E-04
  0.221000001      -9.16182413E-04
  0.222000003      -9.09495458E-04
  0.223000005      -9.02976433E-04
  0.224000007      -8.96678073E-04
  0.224999994      -8.90655501E-04
  0.225999996      -8.84965877E-04
  0.226999998      -8.79668689E-04
  0.228000000      -8.74825579E-04
  0.229000002      -8.70500226E-04
  0.230000004      -8.66758171E-04
  0.231000006      -8.63666763E-04
  0.231999993      -8.61295208E-04
  0.232999995      -8.59714404E-04
  0.233999997      -8.58997286E-04
  0.234999999      -8.59219115E-04
  0.236000001      -8.60457250E-04
  0.237000003      -8.62791727E-04
  0.238000005      -8.66304792E-04
  0.238999993      -8.71080731E-04
  0.239999995      -8.77205457E-04
  0.240999997      -8.84765992E-04
  0.241999999      -8.93849938E-04
  0.243000001      -9.04545304E-04
  0.244000003      -9.16940451E-04
  0.245000005      -9.31124261E-04
  0.246000007      -9.47186432E-04
  0.246999994      -9.65217769E-04
  0.247999996      -9.85310413E-04
  0.248999998      -1.00755715E-03
  0.250000000      -1.03205105E-03
  0.250999987      -1.05888455E-03
  0.252000004      -1.08814833E-03
  0.252999991      -1.11993065E-03
  0.254000008      -1.15431624E-03
  0.254999995      -1.19138684E-03
  0.256000012      -1.23122102E-03
  0.256999999      -1.27389457E-03
  0.257999986      -1.31948118E-03
  0.259000003      -1.36805256E-03
  0.259999990      -1.41967821E-03
  0.261000007      -1.47442450E-03
  0.261999995      -1.53235358E-03
  0.263000011      -1.59352180E-03
  0.263999999      -1.65797805E-03
  0.264999986      -1.72576273E-03
  0.266000003      -1.79690786E-03
  0.266999990      -1.87143672E-03
  0.268000007      -1.94936444E-03
  0.268999994      -2.03069928E-03
  0.270000011      -2.11544265E-03
  0.270999998      -2.20359000E-03
  0.272000015      -2.29512923E-03
  0.273000002      -2.39004032E-03
  0.273999989      -2.48829345E-03
  0.275000006      -2.58984696E-03
  0.275999993      -2.69464706E-03
  0.277000010      -2.80262670E-03
  0.277999997      -2.91370531E-03
  0.279000014      -3.02779092E-03
  0.280000001      -3.14478041E-03
  0.280999988      -3.26456153E-03
  0.282000005      -3.38701322E-03
  0.282999992      -3.51200625E-03
  0.284000009      -3.63940280E-03
  0.284999996      -3.76905547E-03
  0.286000013      -3.90080549E-03
  0.287000000      -4.03448241E-03
  0.287999988      -4.16990230E-03
  0.289000005      -4.30686912E-03
  0.289999992      -4.44517564E-03
  0.291000009      -4.58460441E-03
  0.291999996      -4.72493004E-03
  0.293000013      -4.86592064E-03
  0.294000000      -5.00733871E-03
  0.294999987      -5.14894165E-03
  0.296000004      -5.29048219E-03
  0.296999991      -5.43170935E-03
  0.298000008      -5.57236420E-03
  0.298999995      -5.71218366E-03
  0.300000012      -5.85089950E-03
  0.300999999      -5.98823885E-03
  0.301999986      -6.12392696E-03
  0.303000003      -6.25768816E-03
  0.303999990      -6.38924958E-03
  0.305000007      -6.51834020E-03
  0.305999994      -6.64469413E-03
  0.307000011      -6.76804781E-03
  0.307999998      -6.88814372E-03
  0.308999985      -7.00472761E-03
  0.310000002      -7.11754989E-03
  0.310999990      -7.22636608E-03
  0.312000006      -7.33093824E-03
  0.312999994      -7.43103726E-03
  0.314000010      -7.52644334E-03
  0.314999998      -7.61694880E-03
  0.316000015      -7.70235993E-03
  0.317000002      -7.78249605E-03
  0.317999989      -7.85718951E-03
  0.319000006      -7.92628806E-03
  0.319999993      -7.98964873E-03
  0.321000010      -8.04714393E-03
  0.321999997      -8.09865911E-03
  0.323000014      -8.14409088E-03
  0.324000001      -8.18335358E-03
  0.324999988      -8.21637642E-03
  0.326000005      -8.24310537E-03
  0.326999992      -8.26350693E-03
  0.328000009      -8.27756710E-03
  0.328999996      -8.28528870E-03
  0.330000013      -8.28669406E-03
  0.331000000      -8.28181952E-03
  0.331999987      -8.27071629E-03
  0.333000004      -8.25345051E-03
  0.333999991      -8.23010039E-03
  0.335000008      -8.20075814E-03
  0.335999995      -8.16552807E-03
  0.337000012      -8.12453125E-03
  0.338000000      -8.07790458E-03
  0.338999987      -8.02579988E-03
  0.340000004      -7.96838664E-03
  0.340999991      -7.90584553E-03
  0.342000008      -7.83837028E-03
  0.342999995      -7.76616391E-03
  0.344000012      -7.68943690E-03
  0.344999999      -7.60840718E-03
  0.345999986      -7.52329640E-03
  0.347000003      -7.43433228E-03
  0.347999990      -7.34174764E-03
  0.349000007      -7.24578137E-03
  0.349999994      -7.14667840E-03
  0.351000011      -7.04469066E-03
  0.351999998      -6.94007380E-03
  0.352999985      -6.83308765E-03
  0.354000002      -6.72399299E-03
  0.354999989      -6.61304919E-03
  0.356000006      -6.50051283E-03
  0.356999993      -6.38663629E-03
  0.358000010      -6.27166638E-03
  0.358999997      -6.15584524E-03
  0.360000014      -6.03941130E-03
  0.361000001      -5.92259737E-03
  0.361999989      -5.80563350E-03
  0.363000005      -5.68874506E-03
  0.363999993      -5.57215232E-03
  0.365000010      -5.45606948E-03
  0.365999997      -5.34070376E-03
  0.367000014      -5.22625213E-03
  0.368000001      -5.11290273E-03
  0.368999988      -5.00083202E-03
  0.370000005      -4.89020580E-03
  0.370999992      -4.78118006E-03
  0.372000009      -4.67390101E-03
  0.372999996      -4.56850464E-03
  0.374000013      -4.46511898E-03
  0.375000000      -4.36386326E-03
  0.375999987      -4.26484691E-03
  0.377000004      -4.16817004E-03
  0.377999991      -4.07392345E-03
  0.379000008      -3.98218585E-03
  0.379999995      -3.89302569E-03
  0.381000012      -3.80650023E-03
  0.381999999      -3.72265652E-03
  0.382999986      -3.64153273E-03
  0.384000003      -3.56315752E-03
  0.384999990      -3.48755321E-03
  0.386000007      -3.41473403E-03
  0.386999995      -3.34470789E-03
  0.388000011      -3.27747501E-03
  0.388999999      -3.21302912E-03
  0.389999986      -3.15135648E-03
  0.391000003      -3.09243589E-03
  0.391999990      -3.03623942E-03
  0.393000007      -2.98273168E-03
  0.393999994      -2.93187122E-03
  0.395000011      -2.88361148E-03
  0.395999998      -2.83790077E-03
  0.397000015      -2.79468368E-03
  0.398000002      -2.75390106E-03
  0.398999989      -2.71549192E-03
  0.400000006      -2.67939246E-03
  0.400999993      -2.64553749E-03
  0.402000010      -2.61386042E-03
  0.402999997      -2.58429279E-03
  0.404000014      -2.55676499E-03
  0.405000001      -2.53120554E-03
  0.405999988      -2.50754133E-03
  0.407000005      -2.48569669E-03
  0.407999992      -2.46559549E-03
  0.409000009      -2.44715950E-03
  0.409999996      -2.43031117E-03
  0.411000013      -2.41497275E-03
  0.412000000      -2.40106811E-03
  0.412999988      -2.38852389E-03
  0.414000005      -2.37726863E-03
  0.414999992      -2.36723339E-03
  0.416000009      -2.35835160E-03
  0.416999996      -2.35055760E-03
  0.418000013      -2.34378641E-03
  0.419000000      -2.33797333E-03
  0.419999987      -2.33305385E-03
  0.421000004      -2.32896372E-03
  0.421999991      -2.32564053E-03
  0.423000008      -2.32302421E-03
  0.423999995      -2.32105772E-03
  0.425000012      -2.31968798E-03
  0.425999999      -2.31886562E-03
  0.426999986      -2.31854478E-03
  0.428000003      -2.31868192E-03
  0.428999990      -2.31923535E-03
  0.430000007      -2.32016458E-03
  0.430999994      -2.32143002E-03
  0.432000011      -2.32299254E-03
  0.432999998      -2.32481468E-03
  0.433999985      -2.32686079E-03
  0.435000002      -2.32909783E-03
  0.435999990      -2.33149552E-03
  0.437000006      -2.33402709E-03
  0.437999994      -2.33666808E-03
  0.439000010      -2.33939569E-03
  0.439999998      -2.34218850E-03
  0.441000015      -2.34502601E-03
  0.442000002      -2.34788866E-03
  0.442999989      -2.35075783E-03
  0.444000006      -2.35361652E-03
  0.444999993      -2.35645007E-03
  0.446000010      -2.35924707E-03
  0.446999997      -2.36199773E-03
  0.448000014      -2.36469484E-03
  0.449000001      -2.36733188E-03
  0.449999988      -2.36990233E-03
  0.451000005      -2.37239944E-03
  0.451999992      -2.37481552E-03
  0.453000009      -2.37714173E-03
  0.453999996      -2.37937015E-03
  0.455000013      -2.38149357E-03
  0.456000000      -2.38350732E-03
  0.456999987      -2.38541025E-03
  0.458000004      -2.38720351E-03
  0.458999991      -2.38889107E-03
  0.460000008      -2.39047734E-03
  0.460999995      -2.39196629E-03
  0.462000012      -2.39336048E-03
  0.463000000      -2.39465991E-03
  0.463999987      -2.39586201E-03
  0.465000004      -2.39696284E-03
  0.465999991      -2.39795842E-03
  0.467000008      -2.39884690E-03
  0.467999995      -2.39962875E-03
  0.469000012      -2.40030722E-03
  0.469999999      -2.40088883E-03
  0.470999986      -2.40138150E-03
  0.472000003      -2.40179291E-03
  0.472999990      -2.40212935E-03
  0.474000007      -2.40239478E-03
  0.474999994      -2.40258966E-03
  0.476000011      -2.40271236E-03
  0.476999998      -2.40275986E-03
  0.477999985      -2.40272959E-03
  0.479000002      -2.40262062E-03
  0.479999989      -2.40243506E-03
  0.481000006      -2.40217731E-03
  0.481999993      -2.40185345E-03
  0.483000010      -2.40147091E-03
  0.483999997      -2.40103598E-03
  0.485000014      -2.40055355E-03
  0.486000001      -2.40002642E-03
  0.486999989      -2.39945482E-03
  0.488000005      -2.39883759E-03
  0.488999993      -2.39817286E-03
  0.490000010      -2.39745970E-03
  0.490999997      -2.39669811E-03
  0.492000014      -2.39589019E-03
  0.493000001      -2.39503849E-03
  0.493999988      -2.39414675E-03
  0.495000005      -2.39321869E-03
  0.495999992      -2.39225733E-03
  0.497000009      -2.39126477E-03
  0.497999996      -2.39024218E-03
  0.499000013      -2.38919025E-03
  0.500000000      -2.38810992E-03
  0.500999987      -2.38700258E-03
  0.501999974      -2.38587055E-03
  0.503000021      -2.38471641E-03
  0.504000008      -2.38354318E-03
  0.504999995      -2.38235365E-03
  0.505999982      -2.38114898E-03
  0.507000029      -2.37992988E-03
  0.508000016      -2.37869564E-03
  0.509000003      -2.37744511E-03
  0.509999990      -2.37617781E-03
  0.510999978      -2.37489375E-03
  0.512000024      -2.37359479E-03
  0.513000011      -2.37228419E-03
  0.513999999      -2.37096590E-03
  0.514999986      -2.36964435E-03
  0.515999973      -2.36832350E-03
  0.517000020      -2.36700545E-03
  0.518000007      -2.36569112E-03
  0.518999994      -2.36437912E-03
  0.519999981      -2.36306782E-03
  0.521000028      -2.36175512E-03
  0.522000015      -2.36043963E-03
  0.523000002      -2.35912181E-03
  0.523999989      -2.35780352E-03
  0.524999976      -2.35648849E-03
  0.526000023      -2.35518045E-03
  0.527000010      -2.35388381E-03
  0.527999997      -2.35260092E-03
  0.528999984      -2.35133339E-03
  0.529999971      -2.35008006E-03
  0.531000018      -2.34883931E-03
  0.532000005      -2.34760810E-03
  0.532999992      -2.34638387E-03
  0.533999979      -2.34516524E-03
  0.535000026      -2.34395149E-03
  0.536000013      -2.34274450E-03
  0.537000000      -2.34154635E-03
  0.537999988      -2.34036054E-03
  0.538999975      -2.33918917E-03
  0.540000021      -2.33803410E-03
  0.541000009      -2.33689509E-03
  0.541999996      -2.33577169E-03
  0.542999983      -2.33466178E-03
  0.544000030      -2.33356305E-03
  0.545000017      -2.33247364E-03
  0.546000004      -2.33139331E-03
  0.546999991      -2.33032205E-03
  0.547999978      -2.32926174E-03
  0.549000025      -2.32821447E-03
  0.550000012      -2.32718256E-03
  0.550999999      -2.32616719E-03
  0.551999986      -2.32516858E-03
  0.552999973      -2.32418603E-03
  0.554000020      -2.32321699E-03
  0.555000007      -2.32225913E-03
  0.555999994      -2.32130964E-03
  0.556999981      -2.32036761E-03
  0.558000028      -2.31943280E-03
  0.559000015      -2.31850683E-03
  0.560000002      -2.31759250E-03
  0.560999990      -2.31669261E-03
  0.561999977      -2.31580948E-03
  0.563000023      -2.31494452E-03
  0.564000010      -2.31409702E-03
  0.564999998      -2.31326488E-03
  0.565999985      -2.31244462E-03
  0.566999972      -2.31163274E-03
  0.568000019      -2.31082668E-03
  0.569000006      -2.31002504E-03
  0.569999993      -2.30922806E-03
  0.570999980      -2.30843760E-03
  0.572000027      -2.30765692E-03
  0.573000014      -2.30688858E-03
  0.574000001      -2.30613467E-03
  0.574999988      -2.30539520E-03
  0.575999975      -2.30466877E-03
  0.577000022      -2.30395282E-03
  0.578000009      -2.30324408E-03
  0.578999996      -2.30253953E-03
  0.579999983      -2.30183732E-03
  0.580999970      -2.30113766E-03
  0.582000017      -2.30044196E-03
  0.583000004      -2.29975278E-03
  0.583999991      -2.29907245E-03
  0.584999979      -2.29840237E-03
  0.586000025      -2.29774253E-03
  0.587000012      -2.29709106E-03
  0.588000000      -2.29644543E-03
  0.588999987      -2.29580211E-03
  0.589999974      -2.29515810E-03
  0.591000021      -2.29451177E-03
  0.592000008      -2.29386380E-03
  0.592999995      -2.29321606E-03
  0.593999982      -2.29257159E-03
  0.595000029      -2.29193270E-03
  0.596000016      -2.29130127E-03
  0.597000003      -2.29067705E-03
  0.597999990      -2.29005842E-03
  0.598999977      -2.28944258E-03
  0.600000024      -2.28882628E-03
  0.601000011      -2.28820695E-03
  0.601999998      -2.28758343E-03
  0.602999985      -2.28695618E-03
  0.603999972      -2.28632754E-03
  0.605000019      -2.28570029E-03
  0.606000006      -2.28507724E-03
  0.606999993      -2.28446024E-03
  0.607999980      -2.28384952E-03
  0.609000027      -2.28324393E-03
  0.610000014      -2.28264183E-03
  0.611000001      -2.28204112E-03
  0.611999989      -2.28144042E-03
  0.612999976      -2.28084042E-03
  0.614000022      -2.28024228E-03
  0.615000010      -2.27964879E-03
  0.615999997      -2.27906206E-03
  0.616999984      -2.27848417E-03
  0.617999971      -2.27791537E-03
  0.619000018      -2.27735448E-03
  0.620000005      -2.27679801E-03
  0.620999992      -2.27624318E-03
  0.621999979      -2.27568741E-03
  0.623000026      -2.27512908E-03
  0.624000013      -2.27456912E-03
  0.625000000      -2.27401010E-03
  0.625999987      -2.27345596E-03
  0.626999974      -2.27291067E-03
  0.628000021      -2.27237702E-03
  0.629000008      -2.27185595E-03
  0.629999995      -2.27134652E-03
  0.630999982      -2.27084593E-03
  0.632000029      -2.27035093E-03
  0.633000016      -2.26985943E-03
  0.634000003      -2.26936955E-03
  0.634999990      -2.26888200E-03
  0.635999978      -2.26839958E-03
  0.637000024      -2.26792553E-03
  0.638000011      -2.26746290E-03
  0.638999999      -2.26701377E-03
  0.639999986      -2.26657791E-03
  0.640999973      -2.26615369E-03
  0.642000020      -2.26573786E-03
  0.643000007      -2.26532645E-03
  0.643999994      -2.26491643E-03
  0.644999981      -2.26450665E-03
  0.646000028      -2.26409780E-03
  0.647000015      -2.26369197E-03
  0.648000002      -2.26329220E-03
  0.648999989      -2.26290175E-03
  0.649999976      -2.26252223E-03
  0.651000023      -2.26215390E-03
  0.652000010      -2.26179464E-03
  0.652999997      -2.26144213E-03
  0.653999984      -2.26109382E-03
  0.654999971      -2.26074737E-03
  0.656000018      -2.26040208E-03
  0.657000005      -2.26005912E-03
  0.657999992      -2.25972012E-03
  0.658999979      -2.25938763E-03
  0.660000026      -2.25906377E-03
  0.661000013      -2.25874921E-03
  0.662000000      -2.25844351E-03
  0.662999988      -2.25814502E-03
  0.663999975      -2.25785165E-03
  0.665000021      -2.25756108E-03
  0.666000009      -2.25727190E-03
  0.666999996      -2.25698412E-03
  0.667999983      -2.25669821E-03
  0.669000030      -2.25641509E-03
  0.670000017      -2.25613546E-03
  0.671000004      -2.25585955E-03
  0.671999991      -2.25558691E-03
  0.672999978      -2.25531659E-03
  0.674000025      -2.25504767E-03
  0.675000012      -2.25477992E-03
  0.675999999      -2.25451402E-03
  0.676999986      -2.25425209E-03
  0.677999973      -2.25399574E-03
  0.679000020      -2.25374661E-03
  0.680000007      -2.25350494E-03
  0.680999994      -2.25326885E-03
  0.681999981      -2.25303508E-03
  0.683000028      -2.25279946E-03
  0.684000015      -2.25255778E-03
  0.685000002      -2.25230702E-03
  0.685999990      -2.25204718E-03
  0.686999977      -2.25178036E-03
  0.688000023      -2.25151074E-03
  0.689000010      -2.25124368E-03
  0.689999998      -2.25098361E-03
  0.690999985      -2.25073285E-03
  0.691999972      -2.25049048E-03
  0.693000019      -2.25025346E-03
  0.694000006      -2.25001690E-03
  0.694999993      -2.24977545E-03
  0.695999980      -2.24952563E-03