 -0.159999996       0.00000000    
 -0.158999994       0.00000000    
 -0.158000007       0.00000000    
 -0.157000005       0.00000000    
 -0.156000003      -2.91284837E-17
 -0.155000001      -1.78299707E-17
 -0.153999999       9.10367612E-16
 -0.152999997       5.78909326E-15
 -0.151999995       2.06224300E-14
 -0.150999993       5.22021255E-14
 -0.150000006       1.00993195E-13
 -0.149000004       1.50924602E-13
 -0.148000002       1.64001476E-13
 -0.147000000       9.17720760E-14
 -0.145999998      -8.81617099E-14
 -0.144999996      -3.17691565E-13
 -0.143999994      -4.15810019E-13
 -0.143000007      -9.58024621E-14
 -0.142000005       9.16272050E-13
 -0.141000003       2.66188612E-12
 -0.140000001       4.70191811E-12
 -0.138999999       5.98698001E-12
 -0.137999997       5.02038602E-12
 -0.136999995       4.22321412E-13
 -0.136000007      -8.16908000E-12
 -0.135000005      -1.91618301E-11
 -0.134000003      -2.85423577E-11
 -0.133000001      -3.04112048E-11
 -0.131999999      -1.88183445E-11
 -0.130999997       9.32132930E-12
 -0.129999995       5.11076667E-11
 -0.128999993       9.57347882E-11
 -0.128000006       1.25263244E-10
 -0.127000004       1.18996646E-10
 -0.126000002       6.11272491E-11
 -0.125000000      -5.02845786E-11
 -0.123999998      -1.96296548E-10
 -0.123000003      -3.35775630E-10
 -0.122000001      -4.12537282E-10
 -0.120999999      -3.71185332E-10
 -0.119999997      -1.78481480E-10
 -0.119000003       1.56164720E-10
 -0.118000001       5.69183090E-10
 -0.116999999       9.47426915E-10
 -0.115999997       1.15198551E-09
 -0.115000002       1.05811548E-09
 -0.114000000       6.01495131E-10
 -0.112999998      -1.83708271E-10
 -0.112000003      -1.15002752E-09
 -0.111000001      -2.05550932E-09
 -0.109999999      -2.61719801E-09
 -0.108999997      -2.58884314E-09
 -0.108000003      -1.84238491E-09
 -0.107000001      -4.28046154E-10
 -0.105999999       1.40916268E-09
 -0.104999997       3.26792593E-09
 -0.104000002       4.67954031E-09
 -0.103000000       5.22639709E-09
 -0.101999998       4.65793271E-09
 -0.101000004       2.97008129E-09
 -0.100000001       4.23160701E-10
  -9.89999995E-02  -2.50943577E-09
  -9.79999974E-02  -5.24870147E-09
  -9.70000029E-02  -7.24353066E-09
  -9.60000008E-02  -8.09259593E-09
  -9.49999988E-02  -7.62162600E-09
  -9.39999968E-02  -5.89863580E-09
  -9.30000022E-02  -3.19049209E-09
  -9.20000002E-02   1.17172383E-10
  -9.09999982E-02   3.60525299E-09
  -9.00000036E-02   6.88340096E-09
  -8.90000015E-02   9.61534230E-09
  -8.79999995E-02   1.15130536E-08
  -8.69999975E-02   1.23218422E-08
  -8.60000029E-02   1.18237597E-08
  -8.50000009E-02   9.87780258E-09
  -8.39999989E-02   6.49467191E-09
  -8.29999968E-02   1.91958627E-09
  -8.20000023E-02  -3.32024253E-09
  -8.10000002E-02  -8.44704040E-09
  -7.99999982E-02  -1.25661925E-08
  -7.90000036E-02  -1.48895687E-08
  -7.80000016E-02  -1.49957433E-08
  -7.69999996E-02  -1.30460442E-08
  -7.59999976E-02  -9.87240156E-09
  -7.50000030E-02  -6.88097224E-09
  -7.40000010E-02  -5.76952708E-09
  -7.29999989E-02  -8.12015610E-09
  -7.19999969E-02  -1.49801789E-08
  -7.10000023E-02  -2.65626348E-08
  -7.00000003E-02  -4.21723705E-08
  -6.89999983E-02  -6.03985058E-08
  -6.80000037E-02  -7.95276947E-08
  -6.70000017E-02  -9.80541444E-08
  -6.59999996E-02  -1.15120493E-07
  -6.49999976E-02  -1.30737703E-07
  -6.40000030E-02  -1.45701620E-07
  -6.30000010E-02  -1.61229309E-07
  -6.19999990E-02  -1.78444623E-07
  -6.10000007E-02  -1.97910140E-07
  -5.99999987E-02  -2.19403859E-07
  -5.90000004E-02  -2.42065710E-07
  -5.79999983E-02  -2.64910682E-07
  -5.70000000E-02  -2.87563012E-07
  -5.60000017E-02  -3.10959877E-07
  -5.49999997E-02  -3.37745121E-07
  -5.40000014E-02  -3.72144058E-07
  -5.29999994E-02  -4.19262619E-07
  -5.20000011E-02  -4.83946906E-07
  -5.09999990E-02  -5.69507165E-07
  -5.00000007E-02  -6.76695322E-07
  -4.89999987E-02  -8.03291357E-07
  -4.80000004E-02  -9.44498652E-07
  -4.69999984E-02  -1.09411917E-06
  -4.60000001E-02  -1.24623830E-06
  -4.50000018E-02  -1.39697886E-06
  -4.39999998E-02  -1.54584109E-06
  -4.30000015E-02  -1.69624832E-06
  -4.19999994E-02  -1.85514239E-06
  -4.10000011E-02  -2.03174886E-06
  -3.99999991E-02  -2.23587517E-06
  -3.90000008E-02  -2.47623461E-06
  -3.79999988E-02  -2.75926845E-06
  -3.70000005E-02  -3.08876520E-06
  -3.59999985E-02  -3.46631737E-06
  -3.50000001E-02  -3.89239085E-06
  -3.40000018E-02  -4.36759319E-06
  -3.29999998E-02  -4.89369722E-06
  -3.20000015E-02  -5.47408081E-06
  -3.09999995E-02  -6.11348241E-06
  -2.99999993E-02  -6.81723168E-06
  -2.89999992E-02  -7.59031900E-06
  -2.80000009E-02  -8.43673570E-06
  -2.70000007E-02  -9.35943717E-06
  -2.60000005E-02  -1.03610500E-05
  -2.50000004E-02  -1.14451777E-05
  -2.40000002E-02  -1.26179229E-05
  -2.30000000E-02  -1.38891282E-05
  -2.19999999E-02  -1.52728862E-05
  -2.09999997E-02  -1.67871094E-05
  -1.99999996E-02  -1.84522014E-05
  -1.89999994E-02  -2.02892134E-05
  -1.79999992E-02  -2.23179741E-05
  -1.70000009E-02  -2.45557767E-05
  -1.60000008E-02  -2.70169530E-05
  -1.49999997E-02  -2.97134429E-05
  -1.40000004E-02  -3.26561385E-05
  -1.30000003E-02  -3.58565485E-05
  -1.20000001E-02  -3.93282462E-05
  -1.09999999E-02  -4.30877153E-05
  -9.99999978E-03  -4.71543790E-05
  -8.99999961E-03  -5.15499742E-05
  -8.00000038E-03  -5.62975947E-05
  -7.00000022E-03  -6.14209421E-05
  -6.00000005E-03  -6.69441506E-05
  -4.99999989E-03  -7.28923478E-05
  -4.00000019E-03  -7.92929495E-05
  -3.00000003E-03  -8.61771259E-05
  -2.00000009E-03  -9.35810676E-05
  -1.00000005E-03  -1.01546459E-04
   0.00000000      -1.10119887E-04
   1.00000005E-03  -1.19351280E-04
   2.00000009E-03  -1.29291700E-04
   3.00000003E-03  -1.39991127E-04
   4.00000019E-03  -1.51496788E-04
   4.99999989E-03  -1.63852645E-04
   6.00000005E-03  -1.77100155E-04
   7.00000022E-03  -1.91279963E-04
   8.00000038E-03  -2.06434328E-04
   8.99999961E-03  -2.22609262E-04
   9.99999978E-03  -2.39856061E-04
   1.09999999E-02  -2.58231681E-04
   1.20000001E-02  -2.77798041E-04
   1.30000003E-02  -2.98620434E-04
   1.40000004E-02  -3.20765772E-04
   1.49999997E-02  -3.44301050E-04
   1.60000008E-02  -3.69292567E-04
   1.70000009E-02  -3.95806215E-04
   1.79999992E-02  -4.23908554E-04
   1.89999994E-02  -4.53668268E-04
   1.99999996E-02  -4.85157507E-04
   2.09999997E-02  -5.18452667E-04
   2.19999999E-02  -5.53634309E-04
   2.30000000E-02  -5.90786280E-04
   2.40000002E-02  -6.29993971E-04
   2.50000004E-02  -6.71342539E-04
   2.60000005E-02  -7.14915630E-04
   2.70000007E-02  -7.60794210E-04
   2.80000009E-02  -8.09057092E-04
   2.89999992E-02  -8.59781343E-04
   2.99999993E-02  -9.13043565E-04
   3.09999995E-02  -9.68921289E-04
   3.20000015E-02  -1.02749350E-03
   3.29999998E-02  -1.08884089E-03
   3.40000018E-02  -1.15304510E-03
   3.50000001E-02  -1.22018787E-03
   3.59999985E-02  -1.29034906E-03
   3.70000005E-02  -1.36360596E-03
   3.79999988E-02  -1.44003204E-03
   3.90000008E-02  -1.51969679E-03
   3.99999991E-02  -1.60266634E-03
   4.10000011E-02  -1.68900355E-03
   4.19999994E-02  -1.77876942E-03
   4.30000015E-02  -1.87202310E-03
   4.39999998E-02  -1.96882244E-03
   4.50000018E-02  -2.06922321E-03
   4.60000001E-02  -2.17327848E-03
   4.69999984E-02  -2.28103762E-03
   4.80000004E-02  -2.39254371E-03
   4.89999987E-02  -2.50783330E-03
   5.00000007E-02  -2.62693479E-03
   5.09999990E-02  -2.74986867E-03
   5.20000011E-02  -2.87664612E-03
   5.29999994E-02  -3.00727040E-03
   5.40000014E-02  -3.14173731E-03
   5.49999997E-02  -3.28003522E-03
   5.60000017E-02  -3.42214573E-03
   5.70000000E-02  -3.56804393E-03
   5.79999983E-02  -3.71769816E-03
   5.90000004E-02  -3.87106836E-03
   5.99999987E-02  -4.02810611E-03
   6.10000007E-02  -4.18875413E-03
   6.19999990E-02  -4.35294351E-03
   6.30000010E-02  -4.52059461E-03
   6.40000030E-02  -4.69161803E-03
   6.49999976E-02  -4.86591225E-03
   6.59999996E-02  -5.04336646E-03
   6.70000017E-02  -5.22386096E-03
   6.80000037E-02  -5.40726585E-03
   6.89999983E-02  -5.59344376E-03
   7.00000003E-02  -5.78224612E-03
   7.10000023E-02  -5.97351510E-03
   7.19999969E-02  -6.16707979E-03
   7.29999989E-02  -6.36275718E-03
   7.40000010E-02  -6.56034937E-03
   7.50000030E-02  -6.75964402E-03
   7.59999976E-02  -6.96041435E-03
   7.69999996E-02  -7.16242101E-03
   7.80000016E-02  -7.36541487E-03
   7.90000036E-02  -7.56913703E-03
   7.99999982E-02  -7.77332019E-03
   8.10000002E-02  -7.97769148E-03
   8.20000023E-02  -8.18196777E-03
   8.29999968E-02  -8.38586036E-03
   8.39999989E-02  -8.58907122E-03
   8.50000009E-02  -8.79129022E-03
   8.60000029E-02  -8.99219979E-03
   8.69999975E-02  -9.19146929E-03
   8.79999995E-02  -9.38876253E-03
   8.90000015E-02  -9.58373491E-03
   9.00000036E-02  -9.77603812E-03
   9.09999982E-02  -9.96532012E-03
   9.20000002E-02  -1.01512270E-02
   9.30000022E-02  -1.03334049E-02
   9.39999968E-02  -1.05114961E-02
   9.49999988E-02  -1.06851384E-02
   9.60000008E-02  -1.08539667E-02
   9.70000029E-02  -1.10176113E-02
   9.79999974E-02  -1.11757014E-02
   9.89999995E-02  -1.13278627E-02
  0.100000001      -1.14737246E-02
  0.101000004      -1.16129182E-02
  0.101999998      -1.17450850E-02
  0.103000000      -1.18698720E-02
  0.104000002      -1.19869355E-02
  0.104999997      -1.20959431E-02
  0.105999999      -1.21965725E-02
  0.107000001      -1.22885089E-02
  0.108000003      -1.23714488E-02
  0.108999997      -1.24450969E-02
  0.109999999      -1.25091709E-02
  0.111000001      -1.25634037E-02
  0.112000003      -1.26075428E-02
  0.112999998      -1.26413545E-02
  0.114000000      -1.26646254E-02
  0.115000002      -1.26771592E-02
  0.115999997      -1.26787843E-02
  0.116999999      -1.26693444E-02
  0.118000001      -1.26487045E-02
  0.119000003      -1.26167489E-02
  0.119999997      -1.25733800E-02
  0.120999999      -1.25185242E-02
  0.122000001      -1.24521311E-02
  0.123000003      -1.23741757E-02
  0.123999998      -1.22846598E-02
  0.125000000      -1.21836169E-02
  0.126000002      -1.20711075E-02
  0.127000004      -1.19472165E-02
  0.128000006      -1.18120592E-02
  0.128999993      -1.16657745E-02
  0.129999995      -1.15085244E-02
  0.130999997      -1.13404971E-02
  0.131999999      -1.11619076E-02
  0.133000001      -1.09729981E-02
  0.134000003      -1.07740359E-02
  0.135000005      -1.05653182E-02
  0.136000007      -1.03471680E-02
  0.136999995      -1.01199327E-02
  0.137999997      -9.88398399E-03
  0.138999999      -9.63971112E-03
  0.140000001      -9.38752387E-03
  0.141000003      -9.12784971E-03
  0.142000005      -8.86113103E-03
  0.143000007      -8.58782697E-03
  0.143999994      -8.30841530E-03
  0.144999996      -8.02339055E-03
  0.145999998      -7.73326308E-03
  0.147000000      -7.43855722E-03
  0.148000002      -7.13980943E-03
  0.149000004      -6.83756312E-03
  0.150000006      -6.53237058E-03
  0.150999993      -6.22478593E-03
  0.151999995      -5.91536891E-03
  0.152999997      -5.60468109E-03
  0.153999999      -5.29328734E-03
  0.155000001      -4.98175528E-03
  0.156000003      -4.67065349E-03
  0.157000005      -4.36054915E-03
  0.158000007      -4.05200245E-03
  0.158999994      -3.74556705E-03
  0.159999996      -3.44178197E-03
  0.160999998      -3.14117083E-03
  0.162000000      -2.84424075E-03
  0.163000003      -2.55148159E-03
  0.164000005      -2.26336718E-03
  0.165000007      -1.98035687E-03
  0.165999994      -1.70289632E-03
  0.166999996      -1.43141672E-03
  0.167999998      -1.16633344E-03
  0.169000000      -9.08043003E-04
  0.170000002      -6.56920136E-04
  0.171000004      -4.13314818E-04
  0.172000006      -1.77550392E-04
  0.172999993       5.00774331E-05
  0.173999995       2.69299489E-04
  0.174999997       4.79871727E-04
  0.175999999       6.81573525E-04
  0.177000001       8.74206773E-04
  0.178000003       1.05759548E-03
  0.179000005       1.23158738E-03
  0.180000007       1.39605522E-03
  0.180999994       1.55089889E-03
  0.181999996       1.69604679E-03
  0.182999998       1.83145644E-03
  0.184000000       1.95711316E-03
  0.185000002       2.07302859E-03
  0.186000004       2.17923778E-03
  0.187000006       2.27579544E-03
  0.187999994       2.36277562E-03
  0.188999996       2.44026887E-03
  0.189999998       2.50838348E-03
  0.191000000       2.56724586E-03
  0.192000002       2.61700293E-03
  0.193000004       2.65782117E-03
  0.194000006       2.68988754E-03
  0.194999993       2.71340786E-03
  0.195999995       2.72860355E-03
  0.196999997       2.73570837E-03
  0.197999999       2.73496611E-03
  0.199000001       2.72662751E-03
  0.200000003       2.71094847E-03
  0.201000005       2.68819183E-03
  0.202000007       2.65862676E-03
  0.202999994       2.62253080E-03
  0.203999996       2.58018984E-03
  0.204999998       2.53189821E-03
  0.206000000       2.47795740E-03
  0.207000002       2.41867243E-03
  0.208000004       2.35434948E-03
  0.209000006       2.28529237E-03
  0.209999993       2.21180101E-03
  0.210999995       2.13416992E-03
  0.211999997       2.05268827E-03
  0.213000000       1.96764106E-03
  0.214000002       1.87931035E-03
  0.215000004       1.78797659E-03
  0.216000006       1.69391814E-03
  0.216999993       1.59741030E-03
  0.217999995       1.49872329E-03
  0.218999997       1.39812031E-03
  0.219999999       1.29585492E-03
  0.221000001       1.19216973E-03
  0.222000003       1.08729594E-03
  0.223000005       9.81454272E-04
  0.224000007       8.74856487E-04
  0.224999994       7.67707010E-04
  0.225999996       6.60204096E-04
  0.226999998       5.52540645E-04
  0.228000000       4.44903184E-04
  0.229000002       3.37470934E-04
  0.230000004       2.30413760E-04
  0.231000006       1.23890175E-04
  0.231999993       1.80465031E-05
  0.232999995      -8.69834475E-05
  0.233999997      -1.91077619E-04
  0.234999999      -2.94123776E-04
  0.236000001      -3.96017742E-04
  0.237000003      -4.96661174E-04
  0.238000005      -5.95960941E-04
  0.238999993      -6.93828333E-04
  0.239999995      -7.90180406E-04
  0.240999997      -8.84940964E-04
  0.241999999      -9.78042255E-04
  0.243000001      -1.06942642E-03
  0.244000003      -1.15904573E-03
  0.245000005      -1.24686176E-03
  0.246000007      -1.33284449E-03
  0.246999994      -1.41696981E-03
  0.247999996      -1.49921759E-03
  0.248999998      -1.57957000E-03
  0.250000000      -1.65801041E-03
  0.250999987      -1.73452357E-03
  0.252000004      -1.80909678E-03
  0.252999991      -1.88172120E-03
  0.254000008      -1.95239426E-03
  0.254999995      -2.02112086E-03
  0.256000012      -2.08791322E-03
  0.256999999      -2.15279008E-03
  0.257999986      -2.21577543E-03
  0.259000003      -2.27689557E-03
  0.259999990      -2.33617681E-03
  0.261000007      -2.39364360E-03
  0.261999995      -2.44931853E-03
  0.263000011      -2.50322209E-03
  0.263999999      -2.55537545E-03
  0.264999986      -2.60580098E-03
  0.266000003      -2.65452499E-03
  0.266999990      -2.70157913E-03
  0.268000007      -2.74699950E-03
  0.268999994      -2.79082637E-03
  0.270000011      -2.83310213E-03
  0.270999998      -2.87386891E-03
  0.272000015      -2.91316607E-03
  0.273000002      -2.95102992E-03
  0.273999989      -2.98749260E-03
  0.275000006      -3.02258437E-03
  0.275999993      -3.05633503E-03
  0.277000010      -3.08877602E-03
  0.277999997      -3.11994157E-03
  0.279000014      -3.14986939E-03
  0.280000001      -3.17860045E-03
  0.280999988      -3.20617761E-03
  0.282000005      -3.23264278E-03
  0.282999992      -3.25803598E-03
  0.284000009      -3.28239310E-03
  0.284999996      -3.30574694E-03
  0.286000013      -3.32812732E-03
  0.287000000      -3.34956241E-03
  0.287999988      -3.37008061E-03
  0.289000005      -3.38971103E-03
  0.289999992      -3.40848463E-03
  0.291000009      -3.42643424E-03
  0.291999996      -3.44359176E-03
  0.293000013      -3.45998909E-03
  0.294000000      -3.47565557E-03
  0.294999987      -3.49061890E-03
  0.296000004      -3.50490469E-03
  0.296999991      -3.51853739E-03
  0.298000008      -3.53154191E-03
  0.298999995      -3.54394410E-03
  0.300000012      -3.55577073E-03
  0.300999999      -3.56704835E-03
  0.301999986      -3.57780303E-03
  0.303000003      -3.58805899E-03
  0.303999990      -3.59783671E-03
  0.305000007      -3.60715343E-03
  0.305999994      -3.61602404E-03
  0.307000011      -3.62446276E-03
  0.307999998      -3.63248424E-03
  0.308999985      -3.64010572E-03
  0.310000002      -3.64734745E-03
  0.310999990      -3.65423248E-03
  0.312000006      -3.66078527E-03
  0.312999994      -3.66702885E-03
  0.314000010      -3.67298350E-03
  0.314999998      -3.67866480E-03
  0.316000015      -3.68408277E-03
  0.317000002      -3.68924416E-03
  0.317999989      -3.69415293E-03
  0.319000006      -3.69881419E-03
  0.319999993      -3.70323518E-03
  0.321000010      -3.70742660E-03
  0.321999997      -3.71140242E-03
  0.323000014      -3.71517893E-03
  0.324000001      -3.71877127E-03
  0.324999988      -3.72219319E-03
  0.326000005      -3.72545351E-03
  0.326999992      -3.72855738E-03
  0.328000009      -3.73150618E-03
  0.328999996      -3.73430038E-03
  0.330000013      -3.73694161E-03
  0.331000000      -3.73943429E-03
  0.331999987      -3.74178705E-03
  0.333000004      -3.74401128E-03
  0.333999991      -3.74612096E-03
  0.335000008      -3.74812912E-03
  0.335999995      -3.75004602E-03
  0.337000012      -3.75187700E-03
  0.338000000      -3.75362253E-03
  0.338999987      -3.75527889E-03
  0.340000004      -3.75683978E-03
  0.340999991      -3.75829870E-03
  0.342000008      -3.75965144E-03
  0.342999995      -3.76089849E-03
  0.344000012      -3.76204355E-03
  0.344999999      -3.76309454E-03
  0.345999986      -3.76406033E-03
  0.347000003      -3.76494974E-03
  0.347999990      -3.76576930E-03
  0.349000007      -3.76652228E-03
  0.349999994      -3.76720773E-03
  0.351000011      -3.76782194E-03
  0.351999998      -3.76835908E-03
  0.352999985      -3.76881333E-03
  0.354000002      -3.76918120E-03
  0.354999989      -3.76946153E-03
  0.356000006      -3.76965711E-03
  0.356999993      -3.76977352E-03
  0.358000010      -3.76981869E-03
  0.358999997      -3.76980100E-03
  0.360000014      -3.76972742E-03
  0.361000001      -3.76960309E-03
  0.361999989      -3.76942987E-03
  0.363000005      -3.76920635E-03
  0.363999993      -3.76892881E-03
  0.365000010      -3.76859261E-03
  0.365999997      -3.76819330E-03
  0.367000014      -3.76772834E-03
  0.368000001      -3.76719725E-03
  0.368999988      -3.76660237E-03
  0.370000005      -3.76594858E-03
  0.370999992      -3.76524101E-03
  0.372000009      -3.76448454E-03
  0.372999996      -3.76368244E-03
  0.374000013      -3.76283517E-03
  0.375000000      -3.76194087E-03
  0.375999987      -3.76099721E-03
  0.377000004      -3.76000185E-03
  0.377999991      -3.75895435E-03
  0.379000008      -3.75785818E-03
  0.379999995      -3.75672011E-03
  0.381000012      -3.75554943E-03
  0.381999999      -3.75435711E-03
  0.382999986      -3.75315314E-03
  0.384000003      -3.75194498E-03
  0.384999990      -3.75073636E-03
  0.386000007      -3.74952727E-03
  0.386999995      -3.74831446E-03
  0.388000011      -3.74709256E-03
  0.388999999      -3.74585669E-03
  0.389999986      -3.74460407E-03
  0.391000003      -3.74333421E-03
  0.391999990      -3.74204968E-03
  0.393000007      -3.74075444E-03
  0.393999994      -3.73945292E-03
  0.395000011      -3.73814860E-03
  0.395999998      -3.73684359E-03
  0.397000015      -3.73553857E-03
  0.398000002      -3.73423425E-03
  0.398999989      -3.73293133E-03
  0.400000006      -3.73163167E-03
  0.400999993      -3.73033993E-03
  0.402000010      -3.72906262E-03
  0.402999997      -3.72780673E-03
  0.404000014      -3.72657832E-03
  0.405000001      -3.72538157E-03
  0.405999988      -3.72421695E-03
  0.407000005      -3.72308167E-03
  0.407999992      -3.72197106E-03
  0.409000009      -3.72087932E-03
  0.409999996      -3.71980201E-03
  0.411000013      -3.71873775E-03
  0.412000000      -3.71768791E-03
  0.412999988      -3.71665624E-03
  0.414000005      -3.71564832E-03
  0.414999992      -3.71466880E-03
  0.416000009      -3.71371955E-03
  0.416999996      -3.71280010E-03
  0.418000013      -3.71190603E-03
  0.419000000      -3.71103152E-03
  0.419999987      -3.71017051E-03
  0.421000004      -3.70931835E-03
  0.421999991      -3.70847411E-03
  0.423000008      -3.70763987E-03
  0.423999995      -3.70682101E-03
  0.425000012      -3.70602426E-03
  0.425999999      -3.70525615E-03
  0.426999986      -3.70451994E-03
  0.428000003      -3.70381679E-03
  0.428999990      -3.70314391E-03
  0.430000007      -3.70249618E-03
  0.430999994      -3.70186870E-03
  0.432000011      -3.70125636E-03
  0.432999998      -3.70065705E-03
  0.433999985      -3.70007101E-03
  0.435000002      -3.69950081E-03
  0.435999990      -3.69894900E-03
  0.437000006      -3.69841792E-03
  0.437999994      -3.69790732E-03
  0.439000010      -3.69741442E-03
  0.439999998      -3.69693385E-03
  0.441000015      -3.69645865E-03
  0.442000002      -3.69598228E-03
  0.442999989      -3.69549985E-03
  0.444000006      -3.69500974E-03
  0.444999993      -3.69451335E-03
  0.446000010      -3.69401462E-03
  0.446999997      -3.69351986E-03
  0.448000014      -3.69303487E-03
  0.449000001      -3.69256386E-03
  0.449999988      -3.69210890E-03
  0.451000005      -3.69166886E-03
  0.451999992      -3.69124115E-03
  0.453000009      -3.69082205E-03
  0.453999996      -3.69040761E-03
  0.455000013      -3.68999597E-03
  0.456000000      -3.68958712E-03
  0.456999987      -3.68918339E-03
  0.458000004      -3.68878758E-03
  0.458999991      -3.68840317E-03
  0.460000008      -3.68803111E-03
  0.460999995      -3.68766976E-03
  0.462000012      -3.68731515E-03
  0.463000000      -3.68696009E-03
  0.463999987      -3.68659617E-03
  0.465000004      -3.68621480E-03
  0.465999991      -3.68580990E-03
  0.467000008      -3.68537963E-03
  0.467999995      -3.68492608E-03
  0.469000012      -3.68445530E-03
  0.469999999      -3.68397566E-03
  0.470999986      -3.68349650E-03
  0.472000003      -3.68302525E-03
  0.472999990      -3.68256634E-03
  0.474000007      -3.68212000E-03
  0.474999994      -3.68168252E-03
  0.476000011      -3.68124712E-03
  0.476999998      -3.68080661E-03
  0.477999985      -3.68035445E-03
  0.479000002      -3.67988739E-03
  0.479999989      -3.67940567E-03
  0.481000006      -3.67891276E-03
  0.481999993      -3.67841357E-03
  0.483000010      -3.67791415E-03
  0.483999997      -3.67741869E-03
  0.485000014      -3.67692835E-03
  0.486000001      -3.67644103E-03
  0.486999989      -3.67595186E-03
  0.488000005      -3.67545430E-03
  0.488999993      -3.67494207E-03
  0.490000010      -3.67441168E-03
  0.490999997      -3.67386243E-03
  0.492000014      -3.67329735E-03
  0.493000001      -3.67272180E-03
  0.493999988      -3.67214228E-03
  0.495000005      -3.67156509E-03
  0.495999992      -3.67099466E-03
  0.497000009      -3.67043260E-03
  0.497999996      -3.66987777E-03
  0.499000013      -3.66932759E-03
  0.500000000      -3.66877951E-03
  0.500999987      -3.66823096E-03
  0.501999974      -3.66768194E-03
  0.503000021      -3.66713433E-03
  0.504000008      -3.66659183E-03
  0.504999995      -3.66605795E-03
  0.505999982      -3.66553641E-03
  0.507000029      -3.66502744E-03
  0.508000016      -3.66452942E-03
  0.509000003      -3.66403745E-03
  0.509999990      -3.66354547E-03
  0.510999978      -3.66304675E-03
  0.512000024      -3.66253639E-03
  0.513000011      -3.66201228E-03
  0.513999999      -3.66147561E-03
  0.514999986      -3.66093125E-03
  0.515999973      -3.66038620E-03
  0.517000020      -3.65984906E-03
  0.518000007      -3.65932775E-03
  0.518999994      -3.65882763E-03
  0.519999981      -3.65835195E-03
  0.521000028      -3.65789956E-03
  0.522000015      -3.65746720E-03
  0.523000002      -3.65704927E-03
  0.523999989      -3.65663902E-03
  0.524999976      -3.65623133E-03
  0.526000023      -3.65582271E-03
  0.527000010      -3.65541247E-03
  0.527999997      -3.65500152E-03
  0.528999984      -3.65459337E-03
  0.529999971      -3.65419174E-03
  0.531000018      -3.65380035E-03
  0.532000005      -3.65342130E-03
  0.532999992      -3.65305529E-03
  0.533999979      -3.65270069E-03
  0.535000026      -3.65235494E-03
  0.536000013      -3.65201500E-03
  0.537000000      -3.65167879E-03
  0.537999988      -3.65134515E-03
  0.538999975      -3.65101546E-03
  0.540000021      -3.65069276E-03
  0.541000009      -3.65038170E-03
  0.541999996      -3.65008647E-03
  0.542999983      -3.64981103E-03
  0.544000030      -3.64955631E-03
  0.545000017      -3.64932162E-03
  0.546000004      -3.64910369E-03
  0.546999991      -3.64889833E-03
  0.547999978      -3.64870136E-03
  0.549000025      -3.64850927E-03
  0.550000012      -3.64832091E-03
  0.550999999      -3.64813721E-03
  0.551999986      -3.64796189E-03
  0.552999973      -3.64780007E-03
  0.554000020      -3.64765734E-03
  0.555000007      -3.64753790E-03
  0.555999994      -3.64744407E-03
  0.556999981      -3.64737515E-03
  0.558000028      -3.64732812E-03
  0.559000015      -3.64729762E-03
  0.560000002      -3.64727830E-03
  0.560999990      -3.64726502E-03
  0.561999977      -3.64725478E-03
  0.563000023      -3.64724640E-03
  0.564000010      -3.64724128E-03
  0.564999998      -3.64724267E-03
  0.565999985      -3.64725478E-03
  0.566999972      -3.64728132E-03
  0.568000019      -3.64732533E-03
  0.569000006      -3.64738749E-03
  0.569999993      -3.64746642E-03
  0.570999980      -3.64755886E-03
  0.572000027      -3.64766037E-03
  0.573000014      -3.64776584E-03
  0.574000001      -3.64786992E-03
  0.574999988      -3.64796817E-03
  0.575999975      -3.64805711E-03
  0.577000022      -3.64813395E-03
  0.578000009      -3.64819774E-03
  0.578999996      -3.64824804E-03
  0.579999983      -3.64828529E-03
  0.580999970      -3.64830997E-03
  0.582000017      -3.64832324E-03
  0.583000004      -3.64832627E-03
  0.583999991      -3.64831951E-03
  0.584999979      -3.64830322E-03
  0.586000025      -3.64827714E-03
  0.587000012      -3.64823965E-03
  0.588000000      -3.64818913E-03
  0.588999987      -3.64812277E-03
  0.589999974      -3.64803732E-03
  0.591000021      -3.64793022E-03
  0.592000008      -3.64779891E-03
  0.592999995      -3.64764151E-03
  0.593999982      -3.64745734E-03
  0.595000029      -3.64724617E-03
  0.596000016      -3.64700891E-03
  0.597000003      -3.64674674E-03
  0.597999990      -3.64646129E-03
  0.598999977      -3.64615396E-03
  0.600000024      -3.64582636E-03
  0.601000011      -3.64547968E-03
  0.601999998      -3.64511553E-03
  0.602999985      -3.64473509E-03
  0.603999972      -3.64433997E-03
  0.605000019      -3.64393205E-03
  0.606000006      -3.64351273E-03
  0.606999993      -3.64308362E-03
  0.607999980      -3.64264590E-03
  0.609000027      -3.64220026E-03
  0.610000014      -3.64174671E-03
  0.611000001      -3.64128477E-03
  0.611999989      -3.64081352E-03
  0.612999976      -3.64033296E-03
  0.614000022      -3.63984355E-03
  0.615000010      -3.63934762E-03
  0.615999997      -3.63884796E-03
  0.616999984      -3.63834947E-03
  0.617999971      -3.63785657E-03
  0.619000018      -3.63737345E-03
  0.620000005      -3.63690360E-03
  0.620999992      -3.63644864E-03
  0.621999979      -3.63600836E-03
  0.623000026      -3.63558205E-03
  0.624000013      -3.63516877E-03
  0.625000000      -3.63476807E-03
  0.625999987      -3.63438018E-03
  0.626999974      -3.63400718E-03
  0.628000021      -3.63365142E-03
  0.629000008      -3.63331591E-03
  0.629999995      -3.63300322E-03
  0.630999982      -3.63271474E-03
  0.632000029      -3.63245048E-03
  0.633000016      -3.63220950E-03
  0.634000003      -3.63198994E-03
  0.634999990      -3.63178994E-03
  0.635999978      -3.63160810E-03
  0.637000024      -3.63144372E-03
  0.638000011      -3.63129610E-03
  0.638999999      -3.63116548E-03
  0.639999986      -3.63105116E-03
  0.640999973      -3.63095198E-03
  0.642000020      -3.63086676E-03
  0.643000007      -3.63079435E-03
  0.643999994      -3.63073358E-03
  0.644999981      -3.63068492E-03
  0.646000028      -3.63065023E-03
  0.647000015      -3.63063300E-03
  0.648000002      -3.63063673E-03
  0.648999989      -3.63066420E-03
  0.649999976      -3.63071682E-03
  0.651000023      -3.63079272E-03
  0.652000010      -3.63088702E-03
  0.652999997      -3.63099389E-03
  0.653999984      -3.63110611E-03
  0.654999971      -3.63121857E-03
  0.656000018      -3.63132777E-03
  0.657000005      -3.63143370E-03
  0.657999992      -3.63153848E-03
  0.658999979      -3.63164651E-03
  0.660000026      -3.63176130E-03
  0.661000013      -3.63188446E-03
  0.662000000      -3.63201462E-03
  0.662999988      -3.63214733E-03
  0.663999975      -3.63227539E-03
  0.665000021      -3.63239134E-03
  0.666000009      -3.63248959E-03
  0.666999996      -3.63256736E-03
  0.667999983      -3.63262719E-03
  0.669000030      -3.63267562E-03
  0.670000017      -3.63272172E-03
  0.671000004      -3.63277481E-03
  0.671999991      -3.63284186E-03
  0.672999978      -3.63292592E-03
  0.674000025      -3.63302440E-03
  0.675000012      -3.63313057E-03
  0.675999999      -3.63323465E-03
  0.676999986      -3.63332708E-03
  0.677999973      -3.63339973E-03
  0.679000020      -3.63344932E-03
  0.680000007      -3.63347656E-03
  0.680999994      -3.63348587E-03
  0.681999981      -3.63348308E-03
  0.683000028      -3.63347377E-03
  0.684000015      -3.63346050E-03
  0.685000002      -3.63344303E-03
  0.685999990      -3.63341789E-03
  0.686999977      -3.63338017E-03
  0.688000023      -3.63332522E-03
  0.689000010      -3.63325025E-03
  0.689999998      -3.63315525E-03
  0.690999985      -3.63304419E-03
  0.691999972      -3.63292312E-03
  0.693000019      -3.63279879E-03
  0.694000006      -3.63267679E-03
  0.694999993      -3.63255991E-03
  0.695999980      -3.63244838E-03