 -0.159999996       0.00000000    
 -0.158999994       0.00000000    
 -0.158000007       0.00000000    
 -0.157000005       0.00000000    
 -0.156000003      -2.91284837E-17
 -0.155000001      -2.03424425E-16
 -0.153999999      -7.10886483E-16
 -0.152999997      -1.52680770E-15
 -0.151999995      -1.72223609E-15
 -0.150999993       1.43106979E-15
 -0.150000006       1.27920085E-14
 -0.149000004       3.79202082E-14
 -0.148000002       7.89749193E-14
 -0.147000000       1.28506553E-13
 -0.145999998       1.64190439E-13
 -0.144999996       1.49849968E-13
 -0.143999994       4.81765642E-14
 -0.143000007      -1.53540646E-13
 -0.142000005      -4.11827365E-13
 -0.141000003      -6.06732329E-13
 -0.140000001      -5.55609649E-13
 -0.138999999      -7.81088722E-14
 -0.137999997       8.91245086E-13
 -0.136999995       2.17881225E-12
 -0.136000007       3.30273612E-12
 -0.135000005       3.53550739E-12
 -0.134000003       2.14520719E-12
 -0.133000001      -1.21126275E-12
 -0.131999999      -6.06969119E-12
 -0.130999997      -1.09259719E-11
 -0.129999995      -1.34150998E-11
 -0.128999993      -1.10291099E-11
 -0.128000006      -2.28707851E-12
 -0.127000004       1.20037201E-11
 -0.126000002       2.79778110E-11
 -0.125000000       3.90483236E-11
 -0.123999998       3.77119343E-11
 -0.123000003       1.86406671E-11
 -0.122000001      -1.78121753E-11
 -0.120999999      -6.31390357E-11
 -0.119999997      -1.00825959E-10
 -0.119000003      -1.10179962E-10
 -0.118000001      -7.36760583E-11
 -0.116999999       1.39596173E-11
 -0.115999997       1.38174860E-10
 -0.115000002       2.62371014E-10
 -0.114000000       3.34063222E-10
 -0.112999998       3.00058811E-10
 -0.112000003       1.27802782E-10
 -0.111000001      -1.73472806E-10
 -0.109999999      -5.40271994E-10
 -0.108999997      -8.58932203E-10
 -0.108000003      -9.90339477E-10
 -0.107000001      -8.12695689E-10
 -0.105999999      -2.72163930E-10
 -0.104999997       5.74766623E-10
 -0.104000002       1.54502722E-09
 -0.103000000       2.35225506E-09
 -0.101999998       2.67263367E-09
 -0.101000004       2.24217134E-09
 -0.100000001       9.60627022E-10
  -9.89999995E-02  -1.03098874E-09
  -9.79999974E-02  -3.33122019E-09
  -9.70000029E-02  -5.33691669E-09
  -9.60000008E-02  -6.37824504E-09
  -9.49999988E-02  -5.90335825E-09
  -9.39999968E-02  -3.66530251E-09
  -9.30000022E-02   1.45349094E-10
  -9.20000002E-02   4.87111951E-09
  -9.09999982E-02   9.48626422E-09
  -9.00000036E-02   1.28127562E-08
  -8.90000015E-02   1.38062699E-08
  -8.79999995E-02   1.18385479E-08
  -8.69999975E-02   6.89626001E-09
  -8.60000029E-02  -3.65652703E-10
  -8.50000009E-02  -8.73959838E-09
  -8.39999989E-02  -1.67246075E-08
  -8.29999968E-02  -2.28599006E-08
  -8.20000023E-02  -2.60386255E-08
  -8.10000002E-02  -2.57115627E-08
  -7.99999982E-02  -2.19235492E-08
  -7.90000036E-02  -1.51783563E-08
  -7.80000016E-02  -6.18387386E-09
  -7.69999996E-02   4.42995862E-09
  -7.59999976E-02   1.63178200E-08
  -7.50000030E-02   2.94731972E-08
  -7.40000010E-02   4.41074839E-08
  -7.29999989E-02   6.03975536E-08
  -7.19999969E-02   7.82005074E-08
  -7.10000023E-02   9.68577893E-08
  -7.00000003E-02   1.15191717E-07
  -6.89999983E-02   1.31738545E-07
  -6.80000037E-02   1.45180778E-07
  -6.70000017E-02   1.54863471E-07
  -6.59999996E-02   1.61232819E-07
  -6.49999976E-02   1.66038291E-07
  -6.40000030E-02   1.72196380E-07
  -6.30000010E-02   1.83309780E-07
  -6.19999990E-02   2.02942672E-07
  -6.10000007E-02   2.33836303E-07
  -5.99999987E-02   2.77281998E-07
  -5.90000004E-02   3.32836635E-07
  -5.79999983E-02   3.98476459E-07
  -5.70000000E-02   4.71163446E-07
  -5.60000017E-02   5.47682021E-07
  -5.49999997E-02   6.25527832E-07
  -5.40000014E-02   7.03619435E-07
  -5.29999994E-02   7.82658958E-07
  -5.20000011E-02   8.65074526E-07
  -5.09999990E-02   9.54597226E-07
  -5.00000007E-02   1.05562594E-06
  -4.89999987E-02   1.17257514E-06
  -4.80000004E-02   1.30938452E-06
  -4.69999984E-02   1.46929165E-06
  -4.60000001E-02   1.65486915E-06
  -4.50000018E-02   1.86823672E-06
  -4.39999998E-02   2.11131078E-06
  -4.30000015E-02   2.38596408E-06
  -4.19999994E-02   2.69402949E-06
  -4.10000011E-02   3.03717297E-06
  -3.99999991E-02   3.41674127E-06
  -3.90000008E-02   3.83372344E-06
  -3.79999988E-02   4.28895282E-06
  -3.70000005E-02   4.78358288E-06
  -3.59999985E-02   5.31978321E-06
  -3.50000001E-02   5.90147920E-06
  -3.40000018E-02   6.53492680E-06
  -3.29999998E-02   7.22892264E-06
  -3.20000015E-02   7.99453755E-06
  -3.09999995E-02   8.84440033E-06
  -2.99999993E-02   9.79169545E-06
  -2.89999992E-02   1.08491258E-05
  -2.80000009E-02   1.20281238E-05
  -2.70000007E-02   1.33385056E-05
  -2.60000005E-02   1.47886622E-05
  -2.50000004E-02   1.63862096E-05
  -2.40000002E-02   1.81388841E-05
  -2.30000000E-02   2.00554387E-05
  -2.19999999E-02   2.21462815E-05
  -2.09999997E-02   2.44237526E-05
  -1.99999996E-02   2.69020111E-05
  -1.89999994E-02   2.95967147E-05
  -1.79999992E-02   3.25246692E-05
  -1.70000009E-02   3.57036988E-05
  -1.60000008E-02   3.91528374E-05
  -1.49999997E-02   4.28928470E-05
  -1.40000004E-02   4.69468796E-05
  -1.30000003E-02   5.13411032E-05
  -1.20000001E-02   5.61049492E-05
  -1.09999999E-02   6.12709264E-05
  -9.99999978E-03   6.68738794E-05
  -8.99999961E-03   7.29499588E-05
  -8.00000038E-03   7.95354717E-05
  -7.00000022E-03   8.66659757E-05
  -6.00000005E-03   9.43759514E-05
  -4.99999989E-03   1.02699079E-04
  -4.00000019E-03   1.11669142E-04
  -3.00000003E-03   1.21321296E-04
  -2.00000009E-03   1.31693363E-04
  -1.00000005E-03   1.42826873E-04
   0.00000000       1.54767578E-04
   1.00000005E-03   1.67565318E-04
   2.00000009E-03   1.81273543E-04
   3.00000003E-03   1.95948393E-04
   4.00000019E-03   2.11648046E-04
   4.99999989E-03   2.28432167E-04
   6.00000005E-03   2.46361917E-04
   7.00000022E-03   2.65500363E-04
   8.00000038E-03   2.85912945E-04
   8.99999961E-03   3.07668059E-04
   9.99999978E-03   3.30837269E-04
   1.09999999E-02   3.55494936E-04
   1.20000001E-02   3.81717575E-04
   1.30000003E-02   4.09582717E-04
   1.40000004E-02   4.39167954E-04
   1.49999997E-02   4.70550061E-04
   1.60000008E-02   5.03804826E-04
   1.70000009E-02   5.39007189E-04
   1.79999992E-02   5.76232676E-04
   1.89999994E-02   6.15557947E-04
   1.99999996E-02   6.57062570E-04
   2.09999997E-02   7.00829609E-04
   2.19999999E-02   7.46946025E-04
   2.30000000E-02   7.95501983E-04
   2.40000002E-02   8.46589974E-04
   2.50000004E-02   9.00303421E-04
   2.60000005E-02   9.56735166E-04
   2.70000007E-02   1.01597619E-03
   2.80000009E-02   1.07811531E-03
   2.89999992E-02   1.14323909E-03
   2.99999993E-02   1.21143193E-03
   3.09999995E-02   1.28277775E-03
   3.20000015E-02   1.35735981E-03
   3.29999998E-02   1.43526180E-03
   3.40000018E-02   1.51656731E-03
   3.50000001E-02   1.60135946E-03
   3.59999985E-02   1.68971904E-03
   3.70000005E-02   1.78172381E-03
   3.79999988E-02   1.87744666E-03
   3.90000008E-02   1.97695429E-03
   3.99999991E-02   2.08030781E-03
   4.10000011E-02   2.18756218E-03
   4.19999994E-02   2.29876721E-03
   4.30000015E-02   2.41396925E-03
   4.39999998E-02   2.53321137E-03
   4.50000018E-02   2.65653408E-03
   4.60000001E-02   2.78397556E-03
   4.69999984E-02   2.91557028E-03
   4.80000004E-02   3.05134803E-03
   4.89999987E-02   3.19133210E-03
   5.00000007E-02   3.33553855E-03
   5.09999990E-02   3.48397414E-03
   5.20000011E-02   3.63663607E-03
   5.29999994E-02   3.79351364E-03
   5.40000014E-02   3.95458797E-03
   5.49999997E-02   4.11983440E-03
   5.60000017E-02   4.28922335E-03
   5.70000000E-02   4.46272036E-03
   5.79999983E-02   4.64028632E-03
   5.90000004E-02   4.82187513E-03
   5.99999987E-02   5.00743417E-03
   6.10000007E-02   5.19690057E-03
   6.19999990E-02   5.39020123E-03
   6.30000010E-02   5.58724999E-03
   6.40000030E-02   5.78795001E-03
   6.49999976E-02   5.99219371E-03
   6.59999996E-02   6.19986467E-03
   6.70000017E-02   6.41083904E-03
   6.80000037E-02   6.62498735E-03
   6.89999983E-02   6.84217643E-03
   7.00000003E-02   7.06226751E-03
   7.10000023E-02   7.28511624E-03
   7.19999969E-02   7.51057081E-03
   7.29999989E-02   7.73847243E-03
   7.40000010E-02   7.96865206E-03
   7.50000030E-02   8.20092950E-03
   7.59999976E-02   8.43511801E-03
   7.69999996E-02   8.67102295E-03
   7.80000016E-02   8.90844408E-03
   7.90000036E-02   9.14717838E-03
   7.99999982E-02   9.38702002E-03
   8.10000002E-02   9.62775946E-03
   8.20000023E-02   9.86918435E-03
   8.29999968E-02   1.01110758E-02
   8.39999989E-02   1.03532095E-02
   8.50000009E-02   1.05953505E-02
   8.60000029E-02   1.08372569E-02
   8.69999975E-02   1.10786809E-02
   8.79999995E-02   1.13193672E-02
   8.90000015E-02   1.15590570E-02
   9.00000036E-02   1.17974933E-02
   9.09999982E-02   1.20344209E-02
   9.20000002E-02   1.22695863E-02
   9.30000022E-02   1.25027373E-02
   9.39999968E-02   1.27336252E-02
   9.49999988E-02   1.29620004E-02
   9.60000008E-02   1.31876124E-02
   9.70000029E-02   1.34102078E-02
   9.79999974E-02   1.36295324E-02
   9.89999995E-02   1.38453301E-02
  0.100000001       1.40573485E-02
  0.101000004       1.42653380E-02
  0.101999998       1.44690527E-02
  0.103000000       1.46682560E-02
  0.104000002       1.48627143E-02
  0.104999997       1.50522012E-02
  0.105999999       1.52364941E-02
  0.107000001       1.54153723E-02
  0.108000003       1.55886160E-02
  0.108999997       1.57560073E-02
  0.109999999       1.59173366E-02
  0.111000001       1.60723962E-02
  0.112000003       1.62209887E-02
  0.112999998       1.63629279E-02
  0.114000000       1.64980367E-02
  0.115000002       1.66261531E-02
  0.115999997       1.67471264E-02
  0.116999999       1.68608166E-02
  0.118000001       1.69670936E-02
  0.119000003       1.70658343E-02
  0.119999997       1.71569269E-02
  0.120999999       1.72402635E-02
  0.122000001       1.73157528E-02
  0.123000003       1.73833147E-02
  0.123999998       1.74428802E-02
  0.125000000       1.74943991E-02
  0.126000002       1.75378304E-02
  0.127000004       1.75731517E-02
  0.128000006       1.76003464E-02
  0.128999993       1.76194143E-02
  0.129999995       1.76303629E-02
  0.130999997       1.76332090E-02
  0.131999999       1.76279824E-02
  0.133000001       1.76147241E-02
  0.134000003       1.75934937E-02
  0.135000005       1.75643619E-02
  0.136000007       1.75274182E-02
  0.136999995       1.74827594E-02
  0.137999997       1.74305011E-02
  0.138999999       1.73707698E-02
  0.140000001       1.73036978E-02
  0.141000003       1.72294360E-02
  0.142000005       1.71481408E-02
  0.143000007       1.70599818E-02
  0.143999994       1.69651415E-02
  0.144999996       1.68638155E-02
  0.145999998       1.67562123E-02
  0.147000000       1.66425519E-02
  0.148000002       1.65230576E-02
  0.149000004       1.63979623E-02
  0.150000006       1.62675027E-02
  0.150999993       1.61319114E-02
  0.151999995       1.59914345E-02
  0.152999997       1.58463158E-02
  0.153999999       1.56968106E-02
  0.155000001       1.55431731E-02
  0.156000003       1.53856678E-02
  0.157000005       1.52245667E-02
  0.158000007       1.50601463E-02
  0.158999994       1.48926862E-02
  0.159999996       1.47224683E-02
  0.160999998       1.45497704E-02
  0.162000000       1.43748689E-02
  0.163000003       1.41980378E-02
  0.164000005       1.40195489E-02
  0.165000007       1.38396714E-02
  0.165999994       1.36586763E-02
  0.166999996       1.34768318E-02
  0.167999998       1.32944062E-02
  0.169000000       1.31116668E-02
  0.170000002       1.29288733E-02
  0.171000004       1.27462763E-02
  0.172000006       1.25641180E-02
  0.172999993       1.23826303E-02
  0.173999995       1.22020347E-02
  0.174999997       1.20225465E-02
  0.175999999       1.18443705E-02
  0.177000001       1.16677098E-02
  0.178000003       1.14927609E-02
  0.179000005       1.13197174E-02
  0.180000007       1.11487648E-02
  0.180999994       1.09800845E-02
  0.181999996       1.08138463E-02
  0.182999998       1.06502101E-02
  0.184000000       1.04893232E-02
  0.185000002       1.03313243E-02
  0.186000004       1.01763392E-02
  0.187000006       1.00244833E-02
  0.187999994       9.87586658E-03
  0.188999996       9.73058864E-03
  0.189999998       9.58874170E-03
  0.191000000       9.45041329E-03
  0.192000002       9.31567978E-03
  0.193000004       9.18461010E-03
  0.194000006       9.05726198E-03
  0.194999993       8.93368572E-03
  0.195999995       8.81392229E-03
  0.196999997       8.69800057E-03
  0.197999999       8.58594384E-03
  0.199000001       8.47776700E-03
  0.200000003       8.37347656E-03
  0.201000005       8.27307347E-03
  0.202000007       8.17655586E-03
  0.202999994       8.08391348E-03
  0.203999996       7.99513422E-03
  0.204999998       7.91019946E-03
  0.206000000       7.82908499E-03
  0.207000002       7.75176147E-03
  0.208000004       7.67819211E-03
  0.209000006       7.60833500E-03
  0.209999993       7.54214264E-03
  0.210999995       7.47956149E-03
  0.211999997       7.42053613E-03
  0.213000000       7.36500695E-03
  0.214000002       7.31291156E-03
  0.215000004       7.26418616E-03
  0.216000006       7.21876323E-03
  0.216999993       7.17657479E-03
  0.217999995       7.13754864E-03
  0.218999997       7.10161077E-03
  0.219999999       7.06868386E-03
  0.221000001       7.03868782E-03
  0.222000003       7.01154070E-03
  0.223000005       6.98715867E-03
  0.224000007       6.96545886E-03
  0.224999994       6.94635883E-03
  0.225999996       6.92977710E-03
  0.226999998       6.91563357E-03
  0.228000000       6.90384721E-03
  0.229000002       6.89433655E-03
  0.230000004       6.88701915E-03
  0.231000006       6.88181259E-03
  0.231999993       6.87863212E-03
  0.232999995       6.87739346E-03
  0.233999997       6.87801465E-03
  0.234999999       6.88041514E-03
  0.236000001       6.88451715E-03
  0.237000003       6.89024432E-03
  0.238000005       6.89752214E-03
  0.238999993       6.90627564E-03
  0.239999995       6.91643078E-03
  0.240999997       6.92791073E-03
  0.241999999       6.94063865E-03
  0.243000001       6.95453817E-03
  0.244000003       6.96953340E-03
  0.245000005       6.98555307E-03
  0.246000007       7.00253015E-03
  0.246999994       7.02040223E-03
  0.247999996       7.03911157E-03
  0.248999998       7.05860229E-03
  0.250000000       7.07881944E-03
  0.250999987       7.09970808E-03
  0.252000004       7.12121231E-03
  0.252999991       7.14327628E-03
  0.254000008       7.16584455E-03
  0.254999995       7.18886452E-03
  0.256000012       7.21228775E-03
  0.256999999       7.23606860E-03
  0.257999986       7.26016611E-03
  0.259000003       7.28454255E-03
  0.259999990       7.30915973E-03
  0.261000007       7.33397901E-03
  0.261999995       7.35896174E-03
  0.263000011       7.38406647E-03
  0.263999999       7.40925083E-03
  0.264999986       7.43447524E-03
  0.266000003       7.45970290E-03
  0.266999990       7.48490170E-03
  0.268000007       7.51004554E-03
  0.268999994       7.53511349E-03
  0.270000011       7.56008876E-03
  0.270999998       7.58495601E-03
  0.272000015       7.60969985E-03
  0.273000002       7.63430353E-03
  0.273999989       7.65874796E-03
  0.275000006       7.68301263E-03
  0.275999993       7.70707615E-03
  0.277000010       7.73091894E-03
  0.277999997       7.75452284E-03
  0.279000014       7.77787343E-03
  0.280000001       7.80095905E-03
  0.280999988       7.82377087E-03
  0.282000005       7.84630142E-03
  0.282999992       7.86854327E-03
  0.284000009       7.89048709E-03
  0.284999996       7.91212358E-03
  0.286000013       7.93344248E-03
  0.287000000       7.95443542E-03
  0.287999988       7.97509402E-03
  0.289000005       7.99541362E-03
  0.289999992       8.01539235E-03
  0.291000009       8.03502742E-03
  0.291999996       8.05432070E-03
  0.293000013       8.07327405E-03
  0.294000000       8.09188839E-03
  0.294999987       8.11016466E-03
  0.296000004       8.12810194E-03
  0.296999991       8.14570114E-03
  0.298000008       8.16295948E-03
  0.298999995       8.17987695E-03
  0.300000012       8.19645170E-03
  0.300999999       8.21268279E-03
  0.301999986       8.22857022E-03
  0.303000003       8.24411493E-03
  0.303999990       8.25931784E-03
  0.305000007       8.27418175E-03
  0.305999994       8.28870852E-03
  0.307000011       8.30290280E-03
  0.307999998       8.31676926E-03
  0.308999985       8.33031535E-03
  0.310000002       8.34354665E-03
  0.310999990       8.35647061E-03
  0.312000006       8.36909283E-03
  0.312999994       8.38141795E-03
  0.314000010       8.39344785E-03
  0.314999998       8.40518158E-03
  0.316000015       8.41661915E-03
  0.317000002       8.42775963E-03
  0.317999989       8.43860395E-03
  0.319000006       8.44915863E-03
  0.319999993       8.45942926E-03
  0.321000010       8.46942794E-03
  0.321999997       8.47916584E-03
  0.323000014       8.48865602E-03
  0.324000001       8.49790964E-03
  0.324999988       8.50693323E-03
  0.326000005       8.51573143E-03
  0.326999992       8.52430146E-03
  0.328000009       8.53264239E-03
  0.328999996       8.54075234E-03
  0.330000013       8.54862947E-03
  0.331000000       8.55627749E-03
  0.331999987       8.56370293E-03
  0.333000004       8.57091695E-03
  0.333999991       8.57793353E-03
  0.335000008       8.58476758E-03
  0.335999995       8.59143026E-03
  0.337000012       8.59793182E-03
  0.338000000       8.60427413E-03
  0.338999987       8.61045625E-03
  0.340000004       8.61647539E-03
  0.340999991       8.62232875E-03
  0.342000008       8.62801541E-03
  0.342999995       8.63354001E-03
  0.344000012       8.63890816E-03
  0.344999999       8.64413101E-03
  0.345999986       8.64922162E-03
  0.347000003       8.65419116E-03
  0.347999990       8.65905173E-03
  0.349000007       8.66380800E-03
  0.349999994       8.66846275E-03
  0.351000011       8.67301505E-03
  0.351999998       8.67746491E-03
  0.352999985       8.68181046E-03
  0.354000002       8.68605170E-03
  0.354999989       8.69019236E-03
  0.356000006       8.69423989E-03
  0.356999993       8.69820360E-03
  0.358000010       8.70209094E-03
  0.358999997       8.70590936E-03
  0.360000014       8.70966353E-03
  0.361000001       8.71335436E-03
  0.361999989       8.71697813E-03
  0.363000005       8.72052927E-03
  0.363999993       8.72400496E-03
  0.365000010       8.72740243E-03
  0.365999997       8.73072352E-03
  0.367000014       8.73397198E-03
  0.368000001       8.73715524E-03
  0.368999988       8.74028448E-03
  0.370000005       8.74336809E-03
  0.370999992       8.74641258E-03
  0.372000009       8.74942355E-03
  0.372999996       8.75240099E-03
  0.374000013       8.75534303E-03
  0.375000000       8.75824690E-03
  0.375999987       8.76110885E-03
  0.377000004       8.76392424E-03
  0.377999991       8.76669213E-03
  0.379000008       8.76941252E-03
  0.379999995       8.77208449E-03
  0.381000012       8.77470989E-03
  0.381999999       8.77728686E-03
  0.382999986       8.77981633E-03
  0.384000003       8.78229458E-03
  0.384999990       8.78472067E-03
  0.386000007       8.78709368E-03
  0.386999995       8.78941268E-03
  0.388000011       8.79167952E-03
  0.388999999       8.79389606E-03
  0.389999986       8.79606698E-03
  0.391000003       8.79819412E-03
  0.391999990       8.80028028E-03
  0.393000007       8.80232733E-03
  0.393999994       8.80433619E-03
  0.395000011       8.80630687E-03
  0.395999998       8.80823750E-03
  0.397000015       8.81012715E-03
  0.398000002       8.81197397E-03
  0.398999989       8.81377608E-03
  0.400000006       8.81553255E-03
  0.400999993       8.81724153E-03
  0.402000010       8.81890021E-03
  0.402999997       8.82050581E-03
  0.404000014       8.82205553E-03
  0.405000001       8.82354565E-03
  0.405999988       8.82497523E-03
  0.407000005       8.82634334E-03
  0.407999992       8.82765278E-03
  0.409000009       8.82890727E-03
  0.409999996       8.83010961E-03
  0.411000013       8.83126352E-03
  0.412000000       8.83237273E-03
  0.412999988       8.83344188E-03
  0.414000005       8.83447379E-03
  0.414999992       8.83547030E-03
  0.416000009       8.83643236E-03
  0.416999996       8.83736089E-03
  0.418000013       8.83825868E-03
  0.419000000       8.83912574E-03
  0.419999987       8.83996207E-03
  0.421000004       8.84076674E-03
  0.421999991       8.84154066E-03
  0.423000008       8.84228107E-03
  0.423999995       8.84298887E-03
  0.425000012       8.84366222E-03
  0.425999999       8.84430204E-03
  0.426999986       8.84491112E-03
  0.428000003       8.84549040E-03
  0.428999990       8.84604175E-03
  0.430000007       8.84656794E-03
  0.430999994       8.84706713E-03
  0.432000011       8.84753931E-03
  0.432999998       8.84798355E-03
  0.433999985       8.84839799E-03
  0.435000002       8.84878449E-03
  0.435999990       8.84914491E-03
  0.437000006       8.84948578E-03
  0.437999994       8.84981453E-03
  0.439000010       8.85013584E-03
  0.439999998       8.85045435E-03
  0.441000015       8.85077287E-03
  0.442000002       8.85109138E-03
  0.442999989       8.85140523E-03
  0.444000006       8.85170884E-03
  0.444999993       8.85199755E-03
  0.446000010       8.85226671E-03
  0.446999997       8.85251630E-03
  0.448000014       8.85275006E-03
  0.449000001       8.85297451E-03
  0.449999988       8.85319617E-03
  0.451000005       8.85342248E-03
  0.451999992       8.85365624E-03
  0.453000009       8.85389466E-03
  0.453999996       8.85413308E-03
  0.455000013       8.85436404E-03
  0.456000000       8.85457825E-03
  0.456999987       8.85476824E-03
  0.458000004       8.85493308E-03
  0.458999991       8.85507558E-03
  0.460000008       8.85520224E-03
  0.460999995       8.85532331E-03
  0.462000012       8.85545183E-03
  0.463000000       8.85559525E-03
  0.463999987       8.85576010E-03
  0.465000004       8.85594543E-03
  0.465999991       8.85614753E-03
  0.467000008       8.85636080E-03
  0.467999995       8.85657687E-03
  0.469000012       8.85679107E-03
  0.469999999       8.85699969E-03
  0.470999986       8.85720365E-03
  0.472000003       8.85740761E-03
  0.472999990       8.85761529E-03
  0.474000007       8.85783229E-03
  0.474999994       8.85805860E-03
  0.476000011       8.85829423E-03
  0.476999998       8.85853730E-03
  0.477999985       8.85878224E-03
  0.479000002       8.85902531E-03
  0.479999989       8.85926280E-03
  0.481000006       8.85949284E-03
  0.481999993       8.85971729E-03
  0.483000010       8.85994080E-03
  0.483999997       8.86016991E-03
  0.485000014       8.86041019E-03
  0.486000001       8.86066537E-03
  0.486999989       8.86093825E-03
  0.488000005       8.86122789E-03
  0.488999993       8.86152964E-03
  0.490000010       8.86183791E-03
  0.490999997       8.86214990E-03
  0.492000014       8.86246096E-03
  0.493000001       8.86277109E-03
  0.493999988       8.86308122E-03
  0.495000005       8.86339508E-03
  0.495999992       8.86371452E-03
  0.497000009       8.86403956E-03
  0.497999996       8.86436831E-03
  0.499000013       8.86469521E-03
  0.500000000       8.86501092E-03
  0.500999987       8.86530802E-03
  0.501999974       8.86558089E-03
  0.503000021       8.86582583E-03
  0.504000008       8.86604376E-03
  0.504999995       8.86624027E-03
  0.505999982       8.86642374E-03
  0.507000029       8.86660535E-03
  0.508000016       8.86679348E-03
  0.509000003       8.86699278E-03
  0.509999990       8.86720326E-03
  0.510999978       8.86741932E-03
  0.512000024       8.86763260E-03
  0.513000011       8.86783283E-03
  0.513999999       8.86801351E-03
  0.514999986       8.86817090E-03
  0.515999973       8.86830594E-03
  0.517000020       8.86842236E-03
  0.518000007       8.86852760E-03
  0.518999994       8.86863004E-03
  0.519999981       8.86873249E-03
  0.521000028       8.86883587E-03
  0.522000015       8.86893552E-03
  0.523000002       8.86902213E-03
  0.523999989       8.86908360E-03
  0.524999976       8.86911340E-03
  0.526000023       8.86910968E-03
  0.527000010       8.86907615E-03
  0.527999997       8.86902399E-03
  0.528999984       8.86896625E-03
  0.529999971       8.86891782E-03
  0.531000018       8.86888895E-03
  0.532000005       8.86888057E-03
  0.532999992       8.86888895E-03
  0.533999979       8.86890292E-03
  0.535000026       8.86890758E-03
  0.536000013       8.86889175E-03
  0.537000000       8.86884704E-03
  0.537999988       8.86877440E-03
  0.538999975       8.86868127E-03
  0.540000021       8.86858162E-03
  0.541000009       8.86848755E-03
  0.541999996       8.86841118E-03
  0.542999983       8.86835624E-03
  0.544000030       8.86831805E-03
  0.545000017       8.86828545E-03
  0.546000004       8.86824355E-03
  0.546999991       8.86817928E-03
  0.547999978       8.86808522E-03
  0.549000025       8.86795949E-03
  0.550000012       8.86781141E-03
  0.550999999       8.86765402E-03
  0.551999986       8.86750408E-03
  0.552999973       8.86737555E-03
  0.554000020       8.86727497E-03
  0.555000007       8.86720326E-03
  0.555999994       8.86715017E-03
  0.556999981       8.86710268E-03
  0.558000028       8.86704773E-03
  0.559000015       8.86697415E-03
  0.560000002       8.86688009E-03
  0.560999990       8.86677019E-03
  0.561999977       8.86665471E-03
  0.563000023       8.86654668E-03
  0.564000010       8.86645913E-03
  0.564999998       8.86639766E-03
  0.565999985       8.86636227E-03
  0.566999972       8.86634644E-03
  0.568000019       8.86633806E-03
  0.569000006       8.86632409E-03
  0.569999993       8.86629522E-03
  0.570999980       8.86624772E-03
  0.572000027       8.86618439E-03
  0.573000014       8.86611734E-03
  0.574000001       8.86605866E-03
  0.574999988       8.86602420E-03
  0.575999975       8.86602327E-03
  0.577000022       8.86605866E-03
  0.578000009       8.86612665E-03
  0.578999996       8.86621699E-03
  0.579999983       8.86631850E-03
  0.580999970       8.86641815E-03
  0.582000017       8.86650942E-03
  0.583000004       8.86658952E-03
  0.583999991       8.86666216E-03
  0.584999979       8.86673387E-03
  0.586000025       8.86681490E-03
  0.587000012       8.86691362E-03
  0.588000000       8.86703469E-03
  0.588999987       8.86717904E-03
  0.589999974       8.86734203E-03
  0.591000021       8.86751618E-03
  0.592000008       8.86769686E-03
  0.592999995       8.86787660E-03
  0.593999982       8.86805542E-03
  0.595000029       8.86823609E-03
  0.596000016       8.86842702E-03
  0.597000003       8.86863284E-03
  0.597999990       8.86885915E-03
  0.598999977       8.86910595E-03
  0.600000024       8.86936765E-03
  0.601000011       8.86963680E-03
  0.601999998       8.86990037E-03
  0.602999985       8.87014810E-03
  0.603999972       8.87037255E-03
  0.605000019       8.87056906E-03
  0.606000006       8.87074228E-03
  0.606999993       8.87090061E-03
  0.607999980       8.87105521E-03
  0.609000027       8.87121726E-03
  0.610000014       8.87139421E-03
  0.611000001       8.87159072E-03
  0.611999989       8.87180306E-03
  0.612999976       8.87202285E-03
  0.614000022       8.87223985E-03
  0.615000010       8.87244381E-03
  0.615999997       8.87262635E-03
  0.616999984       8.87278467E-03
  0.617999971       8.87292065E-03
  0.619000018       8.87304079E-03
  0.620000005       8.87315162E-03
  0.620999992       8.87325872E-03
  0.621999979       8.87336396E-03
  0.623000026       8.87346826E-03
  0.624000013       8.87356512E-03
  0.625000000       8.87364894E-03
  0.625999987       8.87371134E-03
  0.626999974       8.87374952E-03
  0.628000021       8.87376443E-03
  0.629000008       8.87375884E-03
  0.629999995       8.87374021E-03
  0.630999982       8.87371786E-03
  0.632000029       8.87369737E-03
  0.633000016       8.87368433E-03
  0.634000003       8.87367688E-03
  0.634999990       8.87367316E-03
  0.635999978       8.87366571E-03
  0.637000024       8.87364708E-03
  0.638000011       8.87361355E-03
  0.638999999       8.87356140E-03
  0.639999986       8.87349248E-03
  0.640999973       8.87340866E-03
  0.642000020       8.87331646E-03
  0.643000007       8.87321867E-03
  0.643999994       8.87311716E-03
  0.644999981       8.87301285E-03
  0.646000028       8.87290295E-03
  0.647000015       8.87278654E-03
  0.648000002       8.87266174E-03
  0.648999989       8.87252949E-03
  0.649999976       8.87239259E-03
  0.651000023       8.87225568E-03
  0.652000010       8.87212437E-03
  0.652999997       8.87200236E-03
  0.653999984       8.87188874E-03
  0.654999971       8.87178257E-03
  0.656000018       8.87167826E-03
  0.657000005       8.87156744E-03
  0.657999992       8.87144264E-03
  0.658999979       8.87130108E-03
  0.660000026       8.87114275E-03
  0.661000013       8.87097046E-03
  0.662000000       8.87079258E-03
  0.662999988       8.87061842E-03
  0.663999975       8.87045544E-03
  0.665000021       8.87030922E-03
  0.666000009       8.87018070E-03
  0.666999996       8.87006707E-03
  0.667999983       8.86995997E-03
  0.669000030       8.86985287E-03
  0.670000017       8.86974018E-03
  0.671000004       8.86961818E-03
  0.671999991       8.86948872E-03
  0.672999978       8.86935741E-03
  0.674000025       8.86923168E-03
  0.675000012       8.86911806E-03
  0.675999999       8.86902120E-03
  0.676999986       8.86893924E-03
  0.677999973       8.86887033E-03
  0.679000020       8.86880606E-03
  0.680000007       8.86874180E-03
  0.680999994       8.86867195E-03
  0.681999981       8.86859652E-03
  0.683000028       8.86851922E-03
  0.684000015       8.86844564E-03
  0.685000002       8.86838511E-03
  0.685999990       8.86834413E-03
  0.686999977       8.86832923E-03
  0.688000023       8.86834133E-03
  0.689000010       8.86837766E-03
  0.689999998       8.86843074E-03
  0.690999985       8.86849128E-03
  0.691999972       8.86855181E-03
  0.693000019       8.86860583E-03
  0.694000006       8.86865053E-03
  0.694999993       8.86868965E-03
  0.695999980       8.86872690E-03