 -0.159999996       0.00000000    
 -0.158999994       0.00000000    
 -0.158000007       0.00000000    
 -0.157000005       0.00000000    
 -0.156000003       0.00000000    
 -0.155000001       0.00000000    
 -0.153999999       0.00000000    
 -0.152999997       0.00000000    
 -0.151999995       0.00000000    
 -0.150999993      -5.48632501E-29
 -0.150000006      -6.84067927E-28
 -0.149000004      -3.95972005E-27
 -0.148000002      -1.26615565E-26
 -0.147000000      -1.36257926E-26
 -0.145999998       8.66961956E-26
 -0.144999996       5.96131438E-25
 -0.143999994       2.12487771E-24
 -0.143000007       5.12187349E-24
 -0.142000005       7.75194206E-24
 -0.141000003       8.01881498E-25
 -0.140000001      -3.99810642E-23
 -0.138999999      -1.58011641E-22
 -0.137999997      -4.00021621E-22
 -0.136999995      -7.53567950E-22
 -0.136000007      -1.01510207E-21
 -0.135000005      -6.06751318E-22
 -0.134000003       1.54218061E-21
 -0.133000001       6.78893140E-21
 -0.131999999       1.58738431E-20
 -0.130999997       2.70331995E-20
 -0.129999995       3.33444615E-20
 -0.128999993       2.05766864E-20
 -0.128000006      -3.17485070E-20
 -0.127000004      -1.42313568E-19
 -0.126000002      -3.09883726E-19
 -0.125000000      -4.86076815E-19
 -0.123999998      -5.48364860E-19
 -0.123000003      -2.94002918E-19
 -0.122000001       5.15103048E-19
 -0.120999999       2.02826051E-18
 -0.119999997       4.09755332E-18
 -0.119000003       6.03155784E-18
 -0.118000001       6.43164897E-18
 -0.116999999       3.30188229E-18
 -0.115999997      -5.35728156E-18
 -0.115000002      -2.03528253E-17
 -0.114000000      -3.96296375E-17
 -0.112999998      -5.66516215E-17
 -0.112000003      -5.97977600E-17
 -0.111000001      -3.40119529E-17
 -0.109999999       3.42341468E-17
 -0.108999997       1.48504185E-16
 -0.108000003       2.92021517E-16
 -0.107000001       4.19104226E-16
 -0.105999999       4.54135391E-16
 -0.104999997       3.04358658E-16
 -0.104000002      -1.09333167E-16
 -0.103000000      -8.05089729E-16
 -0.101999998      -1.68657219E-15
 -0.101000004      -2.50345458E-15
 -0.100000001      -2.85339057E-15
  -9.89999995E-02  -2.25224515E-15
  -9.79999974E-02  -2.86398251E-16
  -9.70000029E-02   3.16616066E-15
  -9.60000008E-02   7.69684778E-15
  -9.49999988E-02   1.21985865E-14
  -9.39999968E-02   1.48805105E-14
  -9.30000022E-02   1.35657426E-14
  -9.20000002E-02   6.31447646E-15
  -9.09999982E-02  -7.69215268E-15
  -9.00000036E-02  -2.72091801E-14
  -8.90000015E-02  -4.82563581E-14
  -8.79999995E-02  -6.41138415E-14
  -8.69999975E-02  -6.63262847E-14
  -8.60000029E-02  -4.68469054E-14
  -8.50000009E-02  -1.09486600E-15
  -8.39999989E-02   6.87395426E-14
  -8.29999968E-02   1.51201114E-13
  -8.20000023E-02   2.25130637E-13
  -8.10000002E-02   2.62342828E-13
  -7.99999982E-02   2.33851973E-13
  -7.90000036E-02   1.19034042E-13
  -7.80000016E-02  -8.41321167E-14
  -7.69999996E-02  -3.50701076E-13
  -7.59999976E-02  -6.25747501E-13
  -7.50000030E-02  -8.29721762E-13
  -7.40000010E-02  -8.73572536E-13
  -7.29999989E-02  -6.82383295E-13
  -7.19999969E-02  -2.23116488E-13
  -7.10000023E-02   4.70734129E-13
  -7.00000003E-02   1.28618188E-12
  -6.89999983E-02   2.03720244E-12
  -6.80000037E-02   2.49476503E-12
  -6.70000017E-02   2.43867513E-12
  -6.59999996E-02   1.72236672E-12
  -6.49999976E-02   3.35394581E-13
  -6.40000030E-02  -1.55511964E-12
  -6.30000010E-02  -3.60161445E-12
  -6.19999990E-02  -5.32254362E-12
  -6.10000007E-02  -6.19728140E-12
  -5.99999987E-02  -5.79445953E-12
  -5.90000004E-02  -3.90572687E-12
  -5.79999983E-02  -6.49234193E-13
  -5.70000000E-02   3.49184744E-12
  -5.60000017E-02   7.71925319E-12
  -5.49999997E-02   1.10613237E-11
  -5.40000014E-02   1.25849530E-11
  -5.29999994E-02   1.16330834E-11
  -5.20000011E-02   8.02860816E-12
  -5.09999990E-02   2.18556943E-12
  -5.00000007E-02  -4.91477388E-12
  -4.89999987E-02  -1.18941914E-11
  -4.80000004E-02  -1.72665684E-11
  -4.69999984E-02  -1.97823685E-11
  -4.60000001E-02  -1.87425995E-11
  -4.50000018E-02  -1.41958979E-11
  -4.39999998E-02  -6.95660630E-12
  -4.30000015E-02   1.57357894E-12
  -4.19999994E-02   9.74337538E-12
  -4.10000011E-02   1.60633486E-11
  -3.99999991E-02   1.95772721E-11
  -3.90000008E-02   2.00832493E-11
  -3.79999988E-02   1.81317409E-11
  -3.70000005E-02   1.47908404E-11
  -3.59999985E-02   1.12412666E-11
  -3.50000001E-02   8.32331426E-12
  -3.40000018E-02   6.18518084E-12
  -3.29999998E-02   4.16466601E-12
  -3.20000015E-02   9.74583153E-13
  -3.09999995E-02  -4.82928020E-12
  -2.99999993E-02  -1.42149383E-11
  -2.89999992E-02  -2.70641166E-11
  -2.80000009E-02  -4.17946164E-11
  -2.70000007E-02  -5.53827574E-11
  -2.60000005E-02  -6.38546160E-11
  -2.50000004E-02  -6.31821401E-11
  -2.40000002E-02  -5.03902926E-11
  -2.30000000E-02  -2.45931331E-11
  -2.19999999E-02   1.23392789E-11
  -2.09999997E-02   5.57131251E-11
  -1.99999996E-02   9.86323453E-11
  -1.89999994E-02   1.33222058E-10
  -1.79999992E-02   1.52199309E-10
  -1.70000009E-02   1.50428670E-10
  -1.60000008E-02   1.26084476E-10
  -1.49999997E-02   8.11294434E-11
  -1.40000004E-02   2.09882875E-11
  -1.30000003E-02  -4.64979756E-11
  -1.20000001E-02  -1.12565637E-10
  -1.09999999E-02  -1.69087105E-10
  -9.99999978E-03  -2.09809281E-10
  -8.99999961E-03  -2.30994418E-10
  -8.00000038E-03  -2.31374142E-10
  -7.00000022E-03  -2.11540396E-10
  -6.00000005E-03  -1.73068920E-10
  -4.99999989E-03  -1.17747201E-10
  -4.00000019E-03  -4.72331618E-11
  -3.00000003E-03   3.66866364E-11
  -2.00000009E-03   1.31295572E-10
  -1.00000005E-03   2.31880612E-10
   0.00000000       3.30828642E-10
   1.00000005E-03   4.17335888E-10
   2.00000009E-03   4.78060758E-10
   3.00000003E-03   4.98812491E-10
   4.00000019E-03   4.67072658E-10
   4.99999989E-03   3.74879489E-10
   6.00000005E-03   2.21436341E-10
   7.00000022E-03   1.47974809E-11
   8.00000038E-03  -2.27864255E-10
   8.99999961E-03  -4.81617080E-10
   9.99999978E-03  -7.16623094E-10
   1.09999999E-02  -9.02031561E-10
   1.20000001E-02  -1.01024555E-09
   1.30000003E-02  -1.02083397E-09
   1.40000004E-02  -9.23457422E-10
   1.49999997E-02  -7.19401538E-10
   1.60000008E-02  -4.21592733E-10
   1.70000009E-02  -5.32426638E-11
   1.79999992E-02   3.54538038E-10
   1.89999994E-02   7.65730368E-10
   1.99999996E-02   1.14259902E-09
   2.09999997E-02   1.44878243E-09
   2.19999999E-02   1.65210212E-09
   2.30000000E-02   1.72702230E-09
   2.40000002E-02   1.65673908E-09
   2.50000004E-02   1.43487366E-09
   2.60000005E-02   1.06669296E-09
   2.70000007E-02   5.69720937E-10
   2.80000009E-02  -2.64276465E-11
   2.89999992E-02  -6.81145029E-10
   2.99999993E-02  -1.34494293E-09
   3.09999995E-02  -1.96255567E-09
   3.20000015E-02  -2.47689180E-09
   3.29999998E-02  -2.83359225E-09
   3.40000018E-02  -2.98588354E-09
   3.50000001E-02  -2.89938473E-09
   3.59999985E-02  -2.55650034E-09
   3.70000005E-02  -1.96002170E-09
   3.79999988E-02  -1.13551957E-09
   3.90000008E-02  -1.32077280E-10
   3.99999991E-02   9.79093251E-10
   4.10000011E-02   2.10853046E-09
   4.19999994E-02   3.15507354E-09
   4.30000015E-02   4.01490663E-09
   4.39999998E-02   4.59244598E-09
   4.50000018E-02   4.81189666E-09
   4.60000001E-02   4.62788163E-09
   4.69999984E-02   4.03333722E-09
   4.80000004E-02   3.06302117E-09
   4.89999987E-02   1.79152448E-09
   5.00000007E-02   3.25568961E-10
   5.09999990E-02  -1.20853760E-09
   5.20000011E-02  -2.68037614E-09
   5.29999994E-02  -3.97118161E-09
   5.40000014E-02  -4.98706809E-09
   5.49999997E-02  -5.66733727E-09
   5.60000017E-02  -5.98653926E-09
   5.70000000E-02  -5.95039173E-09
   5.79999983E-02  -5.58712232E-09
   5.90000004E-02  -4.93690822E-09
   5.99999987E-02  -4.04251166E-09
   6.10000007E-02  -2.94378188E-09
   6.19999990E-02  -1.67745673E-09
   6.30000010E-02  -2.81951629E-10
   6.40000030E-02   1.19496613E-09
   6.49999976E-02   2.68905032E-09
   6.59999996E-02   4.11681578E-09
   6.70000017E-02   5.38022427E-09
   6.80000037E-02   6.38006181E-09
   6.89999983E-02   7.03676228E-09
   7.00000003E-02   7.31488381E-09
   7.10000023E-02   7.24556948E-09
   7.19999969E-02   6.94073332E-09
   7.29999989E-02   6.59374155E-09
   7.40000010E-02   6.46391785E-09
   7.50000030E-02   6.84578705E-09
   7.59999976E-02   8.02777755E-09
   7.69999996E-02   1.02481232E-08
   7.80000016E-02   1.36571501E-08
   7.90000036E-02   1.82944255E-08
   7.99999982E-02   2.40864502E-08
   8.10000002E-02   3.08662571E-08
   8.20000023E-02   3.84113186E-08
   8.29999968E-02   4.64919481E-08
   8.39999989E-02   5.49197949E-08
   8.50000009E-02   6.35860005E-08
   8.60000029E-02   7.24810860E-08
   8.69999975E-02   8.16931873E-08
   8.79999995E-02   9.13867879E-08
   8.90000015E-02   1.01769032E-07
   9.00000036E-02   1.13054092E-07
   9.09999982E-02   1.25436642E-07
   9.20000002E-02   1.39082957E-07
   9.30000022E-02   1.54143564E-07
   9.39999968E-02   1.70785285E-07
   9.49999988E-02   1.89234825E-07
   9.60000008E-02   2.09821977E-07
   9.70000029E-02   2.33010056E-07
   9.79999974E-02   2.59403180E-07
   9.89999995E-02   2.89725534E-07
  0.100000001       3.24774646E-07
  0.101000004       3.65357693E-07
  0.101999998       4.12224381E-07
  0.103000000       4.66012267E-07
  0.104000002       5.27218276E-07
  0.104999997       5.96204188E-07
  0.105999999       6.73237992E-07
  0.107000001       7.58562976E-07
  0.108000003       8.52481776E-07
  0.108999997       9.55438964E-07
  0.109999999       1.06808591E-06
  0.111000001       1.19131641E-06
  0.112000003       1.32626894E-06
  0.112999998       1.47429819E-06
  0.114000000       1.63692687E-06
  0.115000002       1.81579207E-06
  0.115999997       2.01260104E-06
  0.116999999       2.22910921E-06
  0.118000001       2.46712648E-06
  0.119000003       2.72854982E-06
  0.119999997       3.01541718E-06
  0.120999999       3.32996569E-06
  0.122000001       3.67468397E-06
  0.123000003       4.05234550E-06
  0.123999998       4.46601189E-06
  0.125000000       4.91901028E-06
  0.126000002       5.41488407E-06
  0.127000004       5.95733309E-06
  0.128000006       6.55015401E-06
  0.128999993       7.19719628E-06
  0.129999995       7.90234390E-06
  0.130999997       8.66952814E-06
  0.131999999       9.50277627E-06
  0.133000001       1.04062874E-05
  0.134000003       1.13845153E-05
  0.135000005       1.24422668E-05
  0.136000007       1.35847777E-05
  0.136999995       1.48177714E-05
  0.137999997       1.61474782E-05
  0.138999999       1.75806308E-05
  0.140000001       1.91244144E-05
  0.141000003       2.07864086E-05
  0.142000005       2.25745207E-05
  0.143000007       2.44969051E-05
  0.143999994       2.65619274E-05
  0.144999996       2.87781368E-05
  0.145999998       3.11542826E-05
  0.147000000       3.36993435E-05
  0.148000002       3.64225925E-05
  0.149000004       3.93336559E-05
  0.150000006       4.24425525E-05
  0.150999993       4.57597271E-05
  0.151999995       4.92960062E-05
  0.152999997       5.30625621E-05
  0.153999999       5.70708253E-05
  0.155000001       6.13323864E-05
  0.156000003       6.58588979E-05
  0.157000005       7.06619903E-05
  0.158000007       7.57532544E-05
  0.158999994       8.11442296E-05
  0.159999996       8.68464704E-05
  0.160999998       9.28715963E-05
  0.162000000       9.92313726E-05
  0.163000003       1.05937732E-04
  0.164000005       1.13002832E-04
  0.165000007       1.20439006E-04
  0.165999994       1.28258675E-04
  0.166999996       1.36474249E-04
  0.167999998       1.45097962E-04
  0.169000000       1.54141700E-04
  0.170000002       1.63616933E-04
  0.171000004       1.73534558E-04
  0.172000006       1.83904805E-04
  0.172999993       1.94737295E-04
  0.173999995       2.06040975E-04
  0.174999997       2.17824141E-04
  0.175999999       2.30094447E-04
  0.177000001       2.42858907E-04
  0.178000003       2.56123836E-04
  0.179000005       2.69894779E-04
  0.180000007       2.84176436E-04
  0.180999994       2.98972474E-04
  0.181999996       3.14285484E-04
  0.182999998       3.30116774E-04
  0.184000000       3.46466259E-04
  0.185000002       3.63332510E-04
  0.186000004       3.80712620E-04
  0.187000006       3.98602278E-04
  0.187999994       4.16995783E-04
  0.188999996       4.35886090E-04
  0.189999998       4.55264817E-04
  0.191000000       4.75122302E-04
  0.192000002       4.95447661E-04
  0.193000004       5.16228785E-04
  0.194000006       5.37452055E-04
  0.194999993       5.59102336E-04
  0.195999995       5.81162982E-04
  0.196999997       6.03615539E-04
  0.197999999       6.26439811E-04
  0.199000001       6.49613794E-04
  0.200000003       6.73113507E-04
  0.201000005       6.96913223E-04
  0.202000007       7.20985583E-04
  0.202999994       7.45301542E-04
  0.203999996       7.69830716E-04
  0.204999998       7.94541498E-04
  0.206000000       8.19401117E-04
  0.207000002       8.44375638E-04
  0.208000004       8.69430136E-04
  0.209000006       8.94528464E-04
  0.209999993       9.19633370E-04
  0.210999995       9.44706495E-04
  0.211999997       9.69708373E-04
  0.213000000       9.94598493E-04
  0.214000002       1.01933570E-03
  0.215000004       1.04387768E-03
  0.216000006       1.06818217E-03
  0.216999993       1.09220669E-03
  0.217999995       1.11590873E-03
  0.218999997       1.13924639E-03
  0.219999999       1.16217800E-03
  0.221000001       1.18466234E-03
  0.222000003       1.20665820E-03
  0.223000005       1.22812507E-03
  0.224000007       1.24902243E-03
  0.224999994       1.26931025E-03
  0.225999996       1.28894893E-03
  0.226999998       1.30789937E-03
  0.228000000       1.32612314E-03
  0.229000002       1.34358287E-03
  0.230000004       1.36024214E-03
  0.231000006       1.37606601E-03
  0.231999993       1.39102084E-03
  0.232999995       1.40507484E-03
  0.233999997       1.41819764E-03
  0.234999999       1.43036107E-03
  0.236000001       1.44153857E-03
  0.237000003       1.45170535E-03
  0.238000005       1.46083860E-03
  0.238999993       1.46891712E-03
  0.239999995       1.47592137E-03
  0.240999997       1.48183375E-03
  0.241999999       1.48663833E-03
  0.243000001       1.49032089E-03
  0.244000003       1.49286957E-03
  0.245000005       1.49427447E-03
  0.246000007       1.49452791E-03
  0.246999994       1.49362441E-03
  0.247999996       1.49156083E-03
  0.248999998       1.48833566E-03
  0.250000000       1.48394925E-03
  0.250999987       1.47840334E-03
  0.252000004       1.47170096E-03
  0.252999991       1.46384607E-03
  0.254000008       1.45484332E-03
  0.254999995       1.44469866E-03
  0.256000012       1.43341895E-03
  0.256999999       1.42101210E-03
  0.257999986       1.40748720E-03
  0.259000003       1.39285519E-03
  0.259999990       1.37712818E-03
  0.261000007       1.36032014E-03
  0.261999995       1.34244608E-03
  0.263000011       1.32352277E-03
  0.263999999       1.30356720E-03
  0.264999986       1.28259696E-03
  0.266000003       1.26063009E-03
  0.266999990       1.23768416E-03
  0.268000007       1.21377665E-03
  0.268999994       1.18892477E-03
  0.270000011       1.16314576E-03
  0.270999998       1.13645697E-03
  0.272000015       1.10887631E-03
  0.273000002       1.08042208E-03
  0.273999989       1.05111278E-03
  0.275000006       1.02096738E-03
  0.275999993       9.90004628E-04
  0.277000010       9.58243094E-04
  0.277999997       9.25700762E-04
  0.279000014       8.92394746E-04
  0.280000001       8.58341635E-04
  0.280999988       8.23556969E-04
  0.282000005       7.88055651E-04
  0.282999992       7.51852524E-04
  0.284000009       7.14962312E-04
  0.284999996       6.77400501E-04
  0.286000013       6.39183039E-04
  0.287000000       6.00326457E-04
  0.287999988       5.60847286E-04
  0.289000005       5.20762056E-04
  0.289999992       4.80086979E-04
  0.291000009       4.38837480E-04
  0.291999996       3.97028605E-04
  0.293000013       3.54675140E-04
  0.294000000       3.11791606E-04
  0.294999987       2.68392818E-04
  0.296000004       2.24494186E-04
  0.296999991       1.80112096E-04
  0.298000008       1.35263341E-04
  0.298999995       8.99653533E-05
  0.300000012       4.42358651E-05
  0.300999999      -1.90726166E-06
  0.301999986      -4.84463308E-05
  0.303000003      -9.53636991E-05
  0.303999990      -1.42641788E-04
  0.305000007      -1.90262770E-04
  0.305999994      -2.38208129E-04
  0.307000011      -2.86458409E-04
  0.307999998      -3.34993092E-04
  0.308999985      -3.83790350E-04
  0.310000002      -4.32827132E-04
  0.310999990      -4.82079398E-04
  0.312000006      -5.31522324E-04
  0.312999994      -5.81130502E-04
  0.314000010      -6.30878028E-04
  0.314999998      -6.80738653E-04
  0.316000015      -7.30685424E-04
  0.317000002      -7.80690578E-04
  0.317999989      -8.30724952E-04
  0.319000006      -8.80757929E-04
  0.319999993      -9.30757553E-04
  0.321000010      -9.80690587E-04
  0.321999997      -1.03052275E-03
  0.323000014      -1.08021928E-03
  0.324000001      -1.12974516E-03
  0.324999988      -1.17906544E-03
  0.326000005      -1.22814474E-03
  0.326999992      -1.27694791E-03
  0.328000009      -1.32543861E-03
  0.328999996      -1.37358007E-03
  0.330000013      -1.42133399E-03
  0.331000000      -1.46866089E-03
  0.331999987      -1.51551969E-03
  0.333000004      -1.56186812E-03
  0.333999991      -1.60766311E-03
  0.335000008      -1.65286066E-03
  0.335999995      -1.69741677E-03
  0.337000012      -1.74128707E-03
  0.338000000      -1.78442721E-03
  0.338999987      -1.82679249E-03
  0.340000004      -1.86833797E-03
  0.340999991      -1.90901756E-03
  0.342000008      -1.94878445E-03
  0.342999995      -1.98759069E-03
  0.344000012      -2.02538748E-03
  0.344999999      -2.06212467E-03
  0.345999986      -2.09775218E-03
  0.347000003      -2.13221973E-03
  0.347999990      -2.16547679E-03
  0.349000007      -2.19747447E-03
  0.349999994      -2.22816365E-03
  0.351000011      -2.25749635E-03
  0.351999998      -2.28542415E-03
  0.352999985      -2.31189863E-03
  0.354000002      -2.33687158E-03
  0.354999989      -2.36029387E-03
  0.356000006      -2.38211616E-03
  0.356999993      -2.40229000E-03
  0.358000010      -2.42076698E-03
  0.358999997      -2.43749958E-03
  0.360000014      -2.45244172E-03
  0.361000001      -2.46554939E-03
  0.361999989      -2.47677858E-03
  0.363000005      -2.48608738E-03
  0.363999993      -2.49343435E-03
  0.365000010      -2.49877898E-03
  0.365999997      -2.50208192E-03
  0.367000014      -2.50330474E-03
  0.368000001      -2.50241091E-03
  0.368999988      -2.49936571E-03
  0.370000005      -2.49413820E-03
  0.370999992      -2.48669996E-03
  0.372000009      -2.47702654E-03
  0.372999996      -2.46509747E-03
  0.374000013      -2.45089526E-03
  0.375000000      -2.43440666E-03
  0.375999987      -2.41562095E-03
  0.377000004      -2.39453069E-03
  0.377999991      -2.37113168E-03
  0.379000008      -2.34542321E-03
  0.379999995      -2.31740833E-03
  0.381000012      -2.28709448E-03
  0.381999999      -2.25449423E-03
  0.382999986      -2.21962528E-03
  0.384000003      -2.18251138E-03
  0.384999990      -2.14318209E-03
  0.386000007      -2.10167258E-03
  0.386999995      -2.05802335E-03
  0.388000011      -2.01228005E-03
  0.388999999      -1.96449342E-03
  0.389999986      -1.91471889E-03
  0.391000003      -1.86301663E-03
  0.391999990      -1.80945219E-03
  0.393000007      -1.75409706E-03
  0.393999994      -1.69702852E-03
  0.395000011      -1.63833005E-03
  0.395999998      -1.57809141E-03
  0.397000015      -1.51640933E-03
  0.398000002      -1.45338662E-03
  0.398999989      -1.38913200E-03
  0.400000006      -1.32375967E-03
  0.400999993      -1.25738850E-03
  0.402000010      -1.19014189E-03
  0.402999997      -1.12214696E-03
  0.404000014      -1.05353468E-03
  0.405000001      -9.84439976E-04
  0.405999988      -9.15001438E-04
  0.407000005      -8.45361850E-04
  0.407999992      -7.75667431E-04
  0.409000009      -7.06068007E-04
  0.409999996      -6.36716199E-04
  0.411000013      -5.67766721E-04
  0.412000000      -4.99375805E-04
  0.412999988      -4.31700319E-04
  0.414000005      -3.64897103E-04
  0.414999992      -2.99122534E-04
  0.416000009      -2.34532374E-04
  0.416999996      -1.71281456E-04
  0.418000013      -1.09523360E-04
  0.419000000      -4.94102496E-05
  0.419999987       8.90753472E-06
  0.421000004       6.52818635E-05
  0.421999991       1.19567485E-04
  0.423000008       1.71622756E-04
  0.423999995       2.21310198E-04
  0.425000012       2.68497388E-04
  0.425999999       3.13057215E-04
  0.426999986       3.54868476E-04
  0.428000003       3.93816154E-04
  0.428999990       4.29791835E-04
  0.430000007       4.62693977E-04
  0.430999994       4.92428429E-04
  0.432000011       5.18908957E-04
  0.432999998       5.42057620E-04
  0.433999985       5.61805209E-04
  0.435000002       5.78091713E-04
  0.435999990       5.90866432E-04
  0.437000006       6.00088213E-04
  0.437999994       6.05725450E-04
  0.439000010       6.07755792E-04
  0.439999998       6.06166432E-04
  0.441000015       6.00953936E-04
  0.442000002       5.92124066E-04
  0.442999989       5.79691783E-04
  0.444000006       5.63681417E-04
  0.444999993       5.44126786E-04
  0.446000010       5.21071139E-04
  0.446999997       4.94567619E-04
  0.448000014       4.64679091E-04
  0.449000001       4.31477907E-04
  0.449999988       3.95045732E-04
  0.451000005       3.55472876E-04
  0.451999992       3.12857912E-04
  0.453000009       2.67306721E-04
  0.453999996       2.18932022E-04
  0.455000013       1.67852821E-04
  0.456000000       1.14193710E-04
  0.456999987       5.80848609E-05
  0.458000004      -3.38177188E-07
  0.458999991      -6.09344606E-05
  0.460000008      -1.23557591E-04
  0.460999995      -1.88055958E-04
  0.462000012      -2.54273298E-04
  0.463000000      -3.22049338E-04
  0.463999987      -3.91220761E-04
  0.465000004      -4.61622170E-04
  0.465999991      -5.33087237E-04
  0.467000008      -6.05449313E-04
  0.467999995      -6.78542361E-04
  0.469000012      -7.52201187E-04
  0.469999999      -8.26261705E-04
  0.470999986      -9.00560757E-04
  0.472000003      -9.74936469E-04
  0.472999990      -1.04922836E-03
  0.474000007      -1.12327759E-03
  0.474999994      -1.19692832E-03
  0.476000011      -1.27002771E-03
  0.476999998      -1.34242722E-03
  0.477999985      -1.41398306E-03
  0.479000002      -1.48455659E-03
  0.479999989      -1.55401486E-03
  0.481000006      -1.62223005E-03
  0.481999993      -1.68907992E-03
  0.483000010      -1.75444758E-03
  0.483999997      -1.81822118E-03
  0.485000014      -1.88029464E-03
  0.486000001      -1.94056763E-03
  0.486999989      -1.99894584E-03
  0.488000005      -2.05534161E-03
  0.488999993      -2.10967381E-03
  0.490000010      -2.16186862E-03
  0.490999997      -2.21185945E-03
  0.492000014      -2.25958670E-03
  0.493000001      -2.30499823E-03
  0.493999988      -2.34804885E-03
  0.495000005      -2.38869991E-03
  0.495999992      -2.42692023E-03
  0.497000009      -2.46268464E-03
  0.497999996      -2.49597454E-03
  0.499000013      -2.52677733E-03
  0.500000000      -2.55508651E-03
  0.500999987      -2.58090184E-03
  0.501999974      -2.60422821E-03
  0.503000021      -2.62507587E-03
  0.504000008      -2.64346064E-03
  0.504999995      -2.65940302E-03
  0.505999982      -2.67292908E-03
  0.507000029      -2.68407003E-03
  0.508000016      -2.69286102E-03
  0.509000003      -2.69934232E-03
  0.509999990      -2.70355749E-03
  0.510999978      -2.70555378E-03
  0.512000024      -2.70538102E-03
  0.513000011      -2.70309206E-03
  0.513999999      -2.69874209E-03
  0.514999986      -2.69238860E-03
  0.515999973      -2.68409192E-03
  0.517000020      -2.67391466E-03
  0.518000007      -2.66192178E-03
  0.518999994      -2.64818082E-03
  0.519999981      -2.63276021E-03
  0.521000028      -2.61573028E-03
  0.522000015      -2.59716134E-03
  0.523000002      -2.57712463E-03
  0.523999989      -2.55569071E-03
  0.524999976      -2.53293151E-03
  0.526000023      -2.50891829E-03
  0.527000010      -2.48372299E-03
  0.527999997      -2.45741755E-03
  0.528999984      -2.43007415E-03
  0.529999971      -2.40176427E-03
  0.531000018      -2.37255916E-03
  0.532000005      -2.34252843E-03
  0.532999992      -2.31174007E-03
  0.533999979      -2.28025974E-03
  0.535000026      -2.24815053E-03
  0.536000013      -2.21547415E-03
  0.537000000      -2.18229042E-03
  0.537999988      -2.14865827E-03
  0.538999975      -2.11463543E-03
  0.540000021      -2.08027964E-03
  0.541000009      -2.04564701E-03
  0.541999996      -2.01079319E-03
  0.542999983      -1.97577151E-03
  0.544000030      -1.94063317E-03
  0.545000017      -1.90542708E-03
  0.546000004      -1.87019934E-03
  0.546999991      -1.83499325E-03
  0.547999978      -1.79985026E-03
  0.549000025      -1.76480948E-03
  0.550000012      -1.72990886E-03
  0.550999999      -1.69518462E-03
  0.551999986      -1.66067225E-03
  0.552999973      -1.62640552E-03
  0.554000020      -1.59241655E-03
  0.555000007      -1.55873562E-03
  0.555999994      -1.52539043E-03
  0.556999981      -1.49240613E-03
  0.558000028      -1.45980495E-03
  0.559000015      -1.42760680E-03
  0.560000002      -1.39582937E-03
  0.560999990      -1.36448827E-03
  0.561999977      -1.33359793E-03
  0.563000023      -1.30317186E-03
  0.564000010      -1.27322297E-03
  0.564999998      -1.24376349E-03
  0.565999985      -1.21480506E-03
  0.566999972      -1.18635816E-03
  0.568000019      -1.15843187E-03
  0.569000006      -1.13103364E-03
  0.569999993      -1.10416883E-03
  0.570999980      -1.07784069E-03
  0.572000027      -1.05205085E-03
  0.573000014      -1.02680014E-03
  0.574000001      -1.00208819E-03
  0.574999988      -9.77914780E-04
  0.575999975      -9.54279676E-04
  0.577000022      -9.31182643E-04
  0.578000009      -9.08623333E-04
  0.578999996      -8.86600348E-04
  0.579999983      -8.65110836E-04
  0.580999970      -8.44150083E-04
  0.582000017      -8.23711453E-04
  0.583000004      -8.03786679E-04
  0.583999991      -7.84366566E-04
  0.584999979      -7.65441800E-04
  0.586000025      -7.47003884E-04
  0.587000012      -7.29045423E-04
  0.588000000      -7.11560308E-04
  0.588999987      -6.94543414E-04
  0.589999974      -6.77989621E-04
  0.591000021      -6.61893282E-04
  0.592000008      -6.46247121E-04
  0.592999995      -6.31042465E-04
  0.593999982      -6.16269012E-04
  0.595000029      -6.01915468E-04
  0.596000016      -5.87970542E-04
  0.597000003      -5.74423990E-04
  0.597999990      -5.61266846E-04
  0.598999977      -5.48492011E-04
  0.600000024      -5.36093547E-04
  0.601000011      -5.24066098E-04
  0.601999998      -5.12403960E-04
  0.602999985      -5.01100323E-04
  0.603999972      -4.90146864E-04
  0.605000019      -4.79533948E-04
  0.606000006      -4.69250925E-04
  0.606999993      -4.59286966E-04
  0.607999980      -4.49632003E-04
  0.609000027      -4.40277072E-04
  0.610000014      -4.31214750E-04
  0.611000001      -4.22438839E-04
  0.611999989      -4.13943722E-04
  0.612999976      -4.05723724E-04
  0.614000022      -3.97772528E-04
  0.615000010      -3.90083034E-04
  0.615999997      -3.82647268E-04
  0.616999984      -3.75456788E-04
  0.617999971      -3.68503272E-04
  0.619000018      -3.61779152E-04
  0.620000005      -3.55277909E-04
  0.620999992      -3.48994305E-04
  0.621999979      -3.42923944E-04
  0.623000026      -3.37062957E-04
  0.624000013      -3.31407326E-04
  0.625000000      -3.25952482E-04
  0.625999987      -3.20693100E-04
  0.626999974      -3.15623125E-04
  0.628000021      -3.10736039E-04
  0.629000008      -3.06025322E-04
  0.629999995      -3.01484775E-04
  0.630999982      -2.97109014E-04
  0.632000029      -2.92893208E-04
  0.633000016      -2.88833166E-04
  0.634000003      -2.84925132E-04
  0.634999990      -2.81165296E-04
  0.635999978      -2.77549669E-04
  0.637000024      -2.74073915E-04
  0.638000011      -2.70733552E-04
  0.638999999      -2.67524098E-04
  0.639999986      -2.64441245E-04
  0.640999973      -2.61481269E-04
  0.642000020      -2.58641026E-04
  0.643000007      -2.55917752E-04
  0.643999994      -2.53309205E-04
  0.644999981      -2.50813231E-04
  0.646000028      -2.48427736E-04
  0.647000015      -2.46150390E-04
  0.648000002      -2.43978691E-04
  0.648999989      -2.41909962E-04
  0.649999976      -2.39941510E-04
  0.651000023      -2.38070876E-04
  0.652000010      -2.36295891E-04
  0.652999997      -2.34614650E-04
  0.653999984      -2.33025363E-04
  0.654999971      -2.31526355E-04
  0.656000018      -2.30115736E-04
  0.657000005      -2.28791352E-04
  0.657999992      -2.27550656E-04
  0.658999979      -2.26390999E-04
  0.660000026      -2.25309719E-04
  0.661000013      -2.24304167E-04
  0.662000000      -2.23371884E-04
  0.662999988      -2.22510702E-04
  0.663999975      -2.21718714E-04
  0.665000021      -2.20994189E-04
  0.666000009      -2.20335409E-04
  0.666999996      -2.19740628E-04
  0.667999983      -2.19207926E-04
  0.669000030      -2.18735149E-04
  0.670000017      -2.18319808E-04
  0.671000004      -2.17959401E-04
  0.671999991      -2.17651381E-04
  0.672999978      -2.17393390E-04
  0.674000025      -2.17183333E-04
  0.675000012      -2.17019158E-04
  0.675999999      -2.16898858E-04
  0.676999986      -2.16820205E-04
  0.677999973      -2.16780623E-04
  0.679000020      -2.16777000E-04
  0.680000007      -2.16805740E-04
  0.680999994      -2.16862842E-04
  0.681999981      -2.16944100E-04
  0.683000028      -2.17045599E-04
  0.684000015      -2.17163979E-04
  0.685000002      -2.17296620E-04
  0.685999990      -2.17441659E-04
  0.686999977      -2.17597786E-04
  0.688000023      -2.17763736E-04
  0.689000010      -2.17938010E-04
  0.689999998      -2.18118483E-04
  0.690999985      -2.18302215E-04
  0.691999972      -2.18485773E-04
  0.693000019      -2.18665547E-04
  0.694000006      -2.18838424E-04
  0.694999993      -2.19002206E-04
  0.695999980      -2.19156078E-04