 -0.159999996       0.00000000    
 -0.158999994       0.00000000    
 -0.158000007       0.00000000    
 -0.157000005       0.00000000    
 -0.156000003       0.00000000    
 -0.155000001       0.00000000    
 -0.153999999       0.00000000    
 -0.152999997       0.00000000    
 -0.151999995       0.00000000    
 -0.150999993       5.71298831E-30
 -0.150000006       2.21331164E-29
 -0.149000004      -4.06214785E-28
 -0.148000002      -5.60789777E-27
 -0.147000000      -3.80231295E-26
 -0.145999998      -1.78012146E-25
 -0.144999996      -6.39074905E-25
 -0.143999994      -1.84459937E-24
 -0.143000007      -4.37679712E-24
 -0.142000005      -8.60359471E-24
 -0.141000003      -1.40347348E-23
 -0.140000001      -1.94593510E-23
 -0.138999999      -2.68397964E-23
 -0.137999997      -5.36141047E-23
 -0.136999995      -1.55681864E-22
 -0.136000007      -4.50316893E-22
 -0.135000005      -1.09870053E-21
 -0.134000003      -2.16597688E-21
 -0.133000001      -3.25120593E-21
 -0.131999999      -2.83335573E-21
 -0.130999997       2.50087193E-21
 -0.129999995       1.83388866E-20
 -0.128999993       5.10351212E-20
 -0.128000006       1.03012356E-19
 -0.127000004       1.63603232E-19
 -0.126000002       1.96369136E-19
 -0.125000000       1.28152003E-19
 -0.123999998      -1.48909390E-19
 -0.123000003      -7.46088065E-19
 -0.122000001      -1.70195296E-18
 -0.120999999      -2.85887434E-18
 -0.119999997      -3.71964758E-18
 -0.119000003      -3.35706992E-18
 -0.118000001      -4.95980080E-19
 -0.116999999       6.09382882E-18
 -0.115999997       1.68043512E-17
 -0.115000002       3.00592637E-17
 -0.114000000       4.11738017E-17
 -0.112999998       4.18512726E-17
 -0.112000003       2.12043052E-17
 -0.111000001      -3.08538071E-17
 -0.109999999      -1.17548625E-16
 -0.108999997      -2.27386895E-16
 -0.108000003      -3.27049162E-16
 -0.107000001      -3.59279268E-16
 -0.105999999      -2.50877633E-16
 -0.104999997       6.51384483E-17
 -0.104000002       6.12980380E-16
 -0.103000000       1.32966332E-15
 -0.101999998       2.02768824E-15
 -0.101000004       2.38711609E-15
 -0.100000001       2.00127903E-15
  -9.89999995E-02   4.92580364E-16
  -9.79999974E-02  -2.30545703E-15
  -9.70000029E-02  -6.13525361E-15
  -9.60000008E-02  -1.01424352E-14
  -9.49999988E-02  -1.28412541E-14
  -9.39999968E-02  -1.23173490E-14
  -9.30000022E-02  -6.72734785E-15
  -9.20000002E-02   4.93226099E-15
  -9.09999982E-02   2.19389495E-14
  -9.00000036E-02   4.11237444E-14
  -8.90000015E-02   5.66878968E-14
  -8.79999995E-02   6.09159600E-14
  -8.69999975E-02   4.59863674E-14
  -8.60000029E-02   6.76559689E-15
  -8.50000009E-02  -5.59541969E-14
  -8.39999989E-02  -1.32741406E-13
  -8.29999968E-02  -2.04569678E-13
  -8.20000023E-02  -2.44790733E-13
  -8.10000002E-02  -2.24683811E-13
  -7.99999982E-02  -1.22246519E-13
  -7.90000036E-02   6.73948405E-14
  -7.80000016E-02   3.22829708E-13
  -7.69999996E-02   5.92095871E-13
  -7.59999976E-02   7.96736104E-13
  -7.50000030E-02   8.46157888E-13
  -7.40000010E-02   6.61586996E-13
  -7.29999989E-02   2.05454753E-13
  -7.19999969E-02  -4.91261654E-13
  -7.10000023E-02  -1.31324259E-12
  -7.00000003E-02  -2.06566036E-12
  -6.89999983E-02  -2.50522216E-12
  -6.80000037E-02  -2.39651766E-12
  -6.70000017E-02  -1.58449566E-12
  -6.59999996E-02  -6.59579406E-14
  -6.49999976E-02   1.96199285E-12
  -6.40000030E-02   4.09808689E-12
  -6.30000010E-02   5.79174382E-12
  -6.19999990E-02   6.45692744E-12
  -6.10000007E-02   5.62753446E-12
  -5.99999987E-02   3.11974795E-12
  -5.90000004E-02  -8.44194289E-13
  -5.79999983E-02  -5.59630250E-12
  -5.70000000E-02  -1.00988931E-11
  -5.60000017E-02  -1.31415434E-11
  -5.49999997E-02  -1.36299340E-11
  -5.40000014E-02  -1.09044891E-11
  -5.29999994E-02  -5.00498037E-12
  -5.20000011E-02   3.20428406E-12
  -5.09999990E-02   1.21107308E-11
  -5.00000007E-02   1.96472977E-11
  -4.89999987E-02   2.37603808E-11
  -4.80000004E-02   2.29512017E-11
  -4.69999984E-02   1.67517979E-11
  -4.60000001E-02   5.99279177E-12
  -4.50000018E-02  -7.24292371E-12
  -4.39999998E-02  -2.00128022E-11
  -4.30000015E-02  -2.91915173E-11
  -4.19999994E-02  -3.22799253E-11
  -4.10000011E-02  -2.81353638E-11
  -3.99999991E-02  -1.74074487E-11
  -3.90000008E-02  -2.52089430E-12
  -3.79999988E-02   1.28416149E-11
  -3.70000005E-02   2.46639480E-11
  -3.59999985E-02   2.97061160E-11
  -3.50000001E-02   2.64964960E-11
  -3.40000018E-02   1.59039344E-11
  -3.29999998E-02   1.07633553E-12
  -3.20000015E-02  -1.33045814E-11
  -3.09999995E-02  -2.23057666E-11
  -2.99999993E-02  -2.22401108E-11
  -2.89999992E-02  -1.19560048E-11
  -2.80000009E-02   6.48909355E-12
  -2.70000007E-02   2.80427539E-11
  -2.60000005E-02   4.57990000E-11
  -2.50000004E-02   5.28381575E-11
  -2.40000002E-02   4.43063052E-11
  -2.30000000E-02   1.91560968E-11
  -2.19999999E-02  -1.89926321E-11
  -2.09999997E-02  -6.22166346E-11
  -1.99999996E-02  -9.99061736E-11
  -1.89999994E-02  -1.21310989E-10
  -1.79999992E-02  -1.18399346E-10
  -1.70000009E-02  -8.82722159E-11
  -1.60000008E-02  -3.44351145E-11
  -1.49999997E-02   3.35090566E-11
  -1.40000004E-02   1.01781188E-10
  -1.30000003E-02   1.55557164E-10
  -1.20000001E-02   1.82550419E-10
  -1.09999999E-02   1.76121326E-10
  -9.99999978E-03   1.37068343E-10
  -8.99999961E-03   7.35732655E-11
  -8.00000038E-03  -7.50442406E-13
  -7.00000022E-03  -7.02440744E-11
  -6.00000005E-03  -1.21155641E-10
  -4.99999989E-03  -1.45103665E-10
  -4.00000019E-03  -1.41097981E-10
  -3.00000003E-03  -1.15528934E-10
  -2.00000009E-03  -8.00793737E-11
  -1.00000005E-03  -4.80905350E-11
   0.00000000      -3.03663900E-11
   1.00000005E-03  -3.16015235E-11
   2.00000009E-03  -4.85003704E-11
   3.00000003E-03  -7.02388078E-11
   4.00000019E-03  -8.13025203E-11
   4.99999989E-03  -6.60769495E-11
   6.00000005E-03  -1.40345331E-11
   7.00000022E-03   7.58870050E-11
   8.00000038E-03   1.93016839E-10
   8.99999961E-03   3.15641596E-10
   9.99999978E-03   4.14798224E-10
   1.09999999E-02   4.60522287E-10
   1.20000001E-02   4.29221575E-10
   1.30000003E-02   3.10445586E-10
   1.40000004E-02   1.11319780E-10
   1.49999997E-02  -1.42663728E-10
   1.60000008E-02  -4.11036705E-10
   1.70000009E-02  -6.45507314E-10
   1.79999992E-02  -7.99529776E-10
   1.89999994E-02  -8.38272673E-10
   1.99999996E-02  -7.46723794E-10
   2.09999997E-02  -5.33946221E-10
   2.19999999E-02  -2.32266179E-10
   2.30000000E-02   1.08713739E-10
   2.40000002E-02   4.32162639E-10
   2.50000004E-02   6.85978441E-10
   2.60000005E-02   8.33905001E-10
   2.70000007E-02   8.63092986E-10
   2.80000009E-02   7.86091248E-10
   2.89999992E-02   6.36518505E-10
   2.99999993E-02   4.59217969E-10
   3.09999995E-02   2.97181613E-10
   3.20000015E-02   1.78556961E-10
   3.29999998E-02   1.07318640E-10
   3.40000018E-02   6.05464567E-11
   3.50000001E-02  -6.22116291E-12
   3.59999985E-02  -1.46106335E-10
   3.70000005E-02  -4.03129419E-10
   3.79999988E-02  -7.93853372E-10
   3.90000008E-02  -1.29344180E-09
   3.99999991E-02  -1.83063964E-09
   4.10000011E-02  -2.29446373E-09
   4.19999994E-02  -2.55275423E-09
   4.30000015E-02  -2.47973930E-09
   4.39999998E-02  -1.98714001E-09
   4.50000018E-02  -1.05177123E-09
   4.60000001E-02   2.67415506E-10
   4.69999984E-02   1.82817705E-09
   4.80000004E-02   3.42185413E-09
   4.89999987E-02   4.80638462E-09
   5.00000007E-02   5.74959813E-09
   5.09999990E-02   6.07401063E-09
   5.20000011E-02   5.69323833E-09
   5.29999994E-02   4.63133887E-09
   5.40000014E-02   3.01972447E-09
   5.49999997E-02   1.07119169E-09
   5.60000017E-02  -9.64001878E-10
   5.70000000E-02  -2.85048873E-09
   5.79999983E-02  -4.41640013E-09
   5.90000004E-02  -5.58619817E-09
   5.99999987E-02  -6.38878506E-09
   6.10000007E-02  -6.93747371E-09
   6.19999990E-02  -7.38521821E-09
   6.30000010E-02  -7.86499577E-09
   6.40000030E-02  -8.42979553E-09
   6.49999976E-02  -9.00796060E-09
   6.59999996E-02  -9.38708489E-09
   6.70000017E-02  -9.23357746E-09
   6.80000037E-02  -8.14657231E-09
   6.89999983E-02  -5.73605785E-09
   7.00000003E-02  -1.70806491E-09
   7.10000023E-02   4.06359035E-09
   7.19999969E-02   1.14979812E-08
   7.29999989E-02   2.03127222E-08
   7.40000010E-02   3.00771106E-08
   7.50000030E-02   4.03038136E-08
   7.59999976E-02   5.05600255E-08
   7.69999996E-02   6.05730293E-08
   7.80000016E-02   7.03048215E-08
   7.90000036E-02   7.99766866E-08
   7.99999982E-02   9.00357549E-08
   8.10000002E-02   1.01069823E-07
   8.20000023E-02   1.13689737E-07
   8.29999968E-02   1.28408118E-07
   8.39999989E-02   1.45545414E-07
   8.50000009E-02   1.65189192E-07
   8.60000029E-02   1.87220522E-07
   8.69999975E-02   2.11405222E-07
   8.79999995E-02   2.37530998E-07
   8.90000015E-02   2.65559436E-07
   9.00000036E-02   2.95756138E-07
   9.09999982E-02   3.28766589E-07
   9.20000002E-02   3.65616188E-07
   9.30000022E-02   4.07631944E-07
   9.39999968E-02   4.56301365E-07
   9.49999988E-02   5.13101213E-07
   9.60000008E-02   5.79335790E-07
   9.70000029E-02   6.56025861E-07
   9.79999974E-02   7.43875773E-07
   9.89999995E-02   8.43331065E-07
  0.100000001       9.54715802E-07
  0.101000004       1.07842095E-06
  0.101999998       1.21510232E-06
  0.103000000       1.36584379E-06
  0.104000002       1.53224937E-06
  0.104999997       1.71644535E-06
  0.105999999       1.92099378E-06
  0.107000001       2.14874035E-06
  0.108000003       2.40263626E-06
  0.108999997       2.68558188E-06
  0.109999999       3.00033139E-06
  0.111000001       3.34948868E-06
  0.112000003       3.73560192E-06
  0.112999998       4.16134208E-06
  0.114000000       4.62972639E-06
  0.115000002       5.14434805E-06
  0.115999997       5.70955490E-06
  0.116999999       6.33054742E-06
  0.118000001       7.01336830E-06
  0.119000003       7.76479555E-06
  0.119999997       8.59216016E-06
  0.120999999       9.50313279E-06
  0.122000001       1.05055396E-05
  0.123000003       1.16072415E-05
  0.123999998       1.28161191E-05
  0.125000000       1.41401797E-05
  0.126000002       1.55877569E-05
  0.127000004       1.71677766E-05
  0.128000006       1.88900449E-05
  0.128999993       2.07654775E-05
  0.129999995       2.28062563E-05
  0.130999997       2.50258599E-05
  0.131999999       2.74389822E-05
  0.133000001       3.00613447E-05
  0.134000003       3.29094837E-05
  0.135000005       3.60005251E-05
  0.136000007       3.93520386E-05
  0.136999995       4.29819920E-05
  0.137999997       4.69088591E-05
  0.138999999       5.11518156E-05
  0.140000001       5.57310377E-05
  0.141000003       6.06680151E-05
  0.142000005       6.59858342E-05
  0.143000007       7.17093571E-05
  0.143999994       7.78652902E-05
  0.144999996       8.44820461E-05
  0.145999998       9.15895507E-05
  0.147000000       9.92189234E-05
  0.148000002       1.07402157E-04
  0.149000004       1.16171868E-04
  0.150000006       1.25561142E-04
  0.150999993       1.35603506E-04
  0.151999995       1.46333099E-04
  0.152999997       1.57784976E-04
  0.153999999       1.69995343E-04
  0.155000001       1.83001932E-04
  0.156000003       1.96844150E-04
  0.157000005       2.11563238E-04
  0.158000007       2.27202050E-04
  0.158999994       2.43804869E-04
  0.159999996       2.61416979E-04
  0.160999998       2.80084234E-04
  0.162000000       2.99852662E-04
  0.163000003       3.20768246E-04
  0.164000005       3.42876679E-04
  0.165000007       3.66223481E-04
  0.165999994       3.90854257E-04
  0.166999996       4.16814873E-04
  0.167999998       4.44151723E-04
  0.169000000       4.72911866E-04
  0.170000002       5.03143005E-04
  0.171000004       5.34893188E-04
  0.172000006       5.68210613E-04
  0.172999993       6.03142893E-04
  0.173999995       6.39736536E-04
  0.174999997       6.78036362E-04
  0.175999999       7.18085270E-04
  0.177000001       7.59923889E-04
  0.178000003       8.03590810E-04
  0.179000005       8.49122531E-04
  0.180000007       8.96553916E-04
  0.180999994       9.45918437E-04
  0.181999996       9.97248106E-04
  0.182999998       1.05057366E-03
  0.184000000       1.10592390E-03
  0.185000002       1.16332562E-03
  0.186000004       1.22280256E-03
  0.187000006       1.28437532E-03
  0.187999994       1.34806056E-03
  0.188999996       1.41387049E-03
  0.189999998       1.48181303E-03
  0.191000000       1.55189191E-03
  0.192000002       1.62410666E-03
  0.193000004       1.69845298E-03
  0.194000006       1.77492318E-03
  0.194999993       1.85350608E-03
  0.195999995       1.93418702E-03
  0.196999997       2.01694807E-03
  0.197999999       2.10176734E-03
  0.199000001       2.18861853E-03
  0.200000003       2.27747159E-03
  0.201000005       2.36829091E-03
  0.202000007       2.46103620E-03
  0.202999994       2.55566230E-03
  0.203999996       2.65211891E-03
  0.204999998       2.75035109E-03
  0.206000000       2.85029924E-03
  0.207000002       2.95190071E-03
  0.208000004       3.05508845E-03
  0.209000006       3.15979333E-03
  0.209999993       3.26594268E-03
  0.210999995       3.37346154E-03
  0.211999997       3.48227215E-03
  0.213000000       3.59229348E-03
  0.214000002       3.70344217E-03
  0.215000004       3.81563161E-03
  0.216000006       3.92877171E-03
  0.216999993       4.04277071E-03
  0.217999995       4.15753294E-03
  0.218999997       4.27296106E-03
  0.219999999       4.38895728E-03
  0.221000001       4.50542243E-03
  0.222000003       4.62225731E-03
  0.223000005       4.73936368E-03
  0.224000007       4.85664327E-03
  0.224999994       4.97399922E-03
  0.225999996       5.09133562E-03
  0.226999998       5.20855747E-03
  0.228000000       5.32557024E-03
  0.229000002       5.44228032E-03
  0.230000004       5.55859506E-03
  0.231000006       5.67442272E-03
  0.231999993       5.78967342E-03
  0.232999995       5.90425916E-03
  0.233999997       6.01809425E-03
  0.234999999       6.13109721E-03
  0.236000001       6.24318840E-03
  0.237000003       6.35429425E-03
  0.238000005       6.46434398E-03
  0.238999993       6.57327147E-03
  0.239999995       6.68101525E-03
  0.240999997       6.78751757E-03
  0.241999999       6.89272350E-03
  0.243000001       6.99658180E-03
  0.244000003       7.09904311E-03
  0.245000005       7.20006181E-03
  0.246000007       7.29959505E-03
  0.246999994       7.39760371E-03
  0.247999996       7.49405287E-03
  0.248999998       7.58891180E-03
  0.250000000       7.68215489E-03
  0.250999987       7.77376071E-03
  0.252000004       7.86371250E-03
  0.252999991       7.95200001E-03
  0.254000008       8.03861301E-03
  0.254999995       8.12354498E-03
  0.256000012       8.20679124E-03
  0.256999999       8.28834996E-03
  0.257999986       8.36821832E-03
  0.259000003       8.44639726E-03
  0.259999990       8.52288865E-03
  0.261000007       8.59769620E-03
  0.261999995       8.67082737E-03
  0.263000011       8.74229055E-03
  0.263999999       8.81209783E-03
  0.264999986       8.88026506E-03
  0.266000003       8.94680806E-03
  0.266999990       9.01174359E-03
  0.268000007       9.07508936E-03
  0.268999994       9.13686305E-03
  0.270000011       9.19707958E-03
  0.270999998       9.25575662E-03
  0.272000015       9.31290817E-03
  0.273000002       9.36855096E-03
  0.273999989       9.42269992E-03
  0.275000006       9.47537180E-03
  0.275999993       9.52658150E-03
  0.277000010       9.57634486E-03
  0.277999997       9.62467957E-03
  0.279000014       9.67160147E-03
  0.280000001       9.71712638E-03
  0.280999988       9.76127107E-03
  0.282000005       9.80405137E-03
  0.282999992       9.84548032E-03
  0.284000009       9.88557190E-03
  0.284999996       9.92433727E-03
  0.286000013       9.96178761E-03
  0.287000000       9.99793410E-03
  0.287999988       1.00327879E-02
  0.289000005       1.00663602E-02
  0.289999992       1.00986632E-02
  0.291000009       1.01297107E-02
  0.291999996       1.01595158E-02
  0.293000013       1.01880934E-02
  0.294000000       1.02154585E-02
  0.294999987       1.02416249E-02
  0.296000004       1.02666076E-02
  0.296999991       1.02904225E-02
  0.298000008       1.03130843E-02
  0.298999995       1.03346100E-02
  0.300000012       1.03550162E-02
  0.300999999       1.03743188E-02
  0.301999986       1.03925373E-02
  0.303000003       1.04096923E-02
  0.303999990       1.04258060E-02
  0.305000007       1.04409019E-02
  0.305999994       1.04550049E-02
  0.307000011       1.04681421E-02
  0.307999998       1.04803415E-02
  0.308999985       1.04916319E-02
  0.310000002       1.05020450E-02
  0.310999990       1.05116125E-02
  0.312000006       1.05203651E-02
  0.312999994       1.05283372E-02
  0.314000010       1.05355615E-02
  0.314999998       1.05420724E-02
  0.316000015       1.05479071E-02
  0.317000002       1.05531029E-02
  0.317999989       1.05576962E-02
  0.319000006       1.05617279E-02
  0.319999993       1.05652362E-02
  0.321000010       1.05682621E-02
  0.321999997       1.05708446E-02
  0.323000014       1.05730249E-02
  0.324000001       1.05748419E-02
  0.324999988       1.05763329E-02
  0.326000005       1.05775362E-02
  0.326999992       1.05784880E-02
  0.328000009       1.05792237E-02
  0.328999996       1.05797760E-02
  0.330000013       1.05801765E-02
  0.331000000       1.05804587E-02
  0.331999987       1.05806533E-02
  0.333000004       1.05807884E-02
  0.333999991       1.05808927E-02
  0.335000008       1.05809914E-02
  0.335999995       1.05811041E-02
  0.337000012       1.05812503E-02
  0.338000000       1.05814459E-02
  0.338999987       1.05817029E-02
  0.340000004       1.05820317E-02
  0.340999991       1.05824368E-02
  0.342000008       1.05829220E-02
  0.342999995       1.05834873E-02
  0.344000012       1.05841309E-02
  0.344999999       1.05848452E-02
  0.345999986       1.05856219E-02
  0.347000003       1.05864452E-02
  0.347999990       1.05872974E-02
  0.349000007       1.05881561E-02
  0.349999994       1.05889952E-02
  0.351000011       1.05897840E-02
  0.351999998       1.05904918E-02
  0.352999985       1.05910823E-02
  0.354000002       1.05915181E-02
  0.354999989       1.05917575E-02
  0.356000006       1.05917566E-02
  0.356999993       1.05914650E-02
  0.358000010       1.05908327E-02
  0.358999997       1.05898026E-02
  0.360000014       1.05883153E-02
  0.361000001       1.05863120E-02
  0.361999989       1.05837286E-02
  0.363000005       1.05805006E-02
  0.363999993       1.05765630E-02
  0.365000010       1.05718467E-02
  0.365999997       1.05662830E-02
  0.367000014       1.05598029E-02
  0.368000001       1.05523327E-02
  0.368999988       1.05437990E-02
  0.370000005       1.05341272E-02
  0.370999992       1.05232410E-02
  0.372000009       1.05110658E-02
  0.372999996       1.04975263E-02
  0.374000013       1.04825487E-02
  0.375000000       1.04660606E-02
  0.375999987       1.04479911E-02
  0.377000004       1.04282741E-02
  0.377999991       1.04068406E-02
  0.379000008       1.03836237E-02
  0.379999995       1.03585599E-02
  0.381000012       1.03315851E-02
  0.381999999       1.03026386E-02
  0.382999986       1.02716601E-02
  0.384000003       1.02385934E-02
  0.384999990       1.02033867E-02
  0.386000007       1.01659931E-02
  0.386999995       1.01263700E-02
  0.388000011       1.00844782E-02
  0.388999999       1.00402841E-02
  0.389999986       9.99375805E-03
  0.391000003       9.94487386E-03
  0.391999990       9.89360921E-03
  0.393000007       9.83994361E-03
  0.393999994       9.78386216E-03
  0.395000011       9.72535368E-03
  0.395999998       9.66441352E-03
  0.397000015       9.60104261E-03
  0.398000002       9.53524839E-03
  0.398999989       9.46704578E-03
  0.400000006       9.39645432E-03
  0.400999993       9.32350103E-03
  0.402000010       9.24821664E-03
  0.402999997       9.17063653E-03
  0.404000014       9.09080077E-03
  0.405000001       9.00875498E-03
  0.405999988       8.92454851E-03
  0.407000005       8.83823354E-03
  0.407999992       8.74987058E-03
  0.409000009       8.65952391E-03
  0.409999996       8.56726337E-03
  0.411000013       8.47316626E-03
  0.412000000       8.37731455E-03
  0.412999988       8.27979762E-03
  0.414000005       8.18070676E-03
  0.414999992       8.08013882E-03
  0.416000009       7.97819346E-03
  0.416999996       7.87497405E-03
  0.418000013       7.77058629E-03
  0.419000000       7.66514009E-03
  0.419999987       7.55874766E-03
  0.421000004       7.45152449E-03
  0.421999991       7.34358793E-03
  0.423000008       7.23505951E-03
  0.423999995       7.12606264E-03
  0.425000012       7.01672398E-03
  0.425999999       6.90717204E-03
  0.426999986       6.79753814E-03
  0.428000003       6.68795453E-03
  0.428999990       6.57855300E-03
  0.430000007       6.46946719E-03
  0.430999994       6.36082934E-03
  0.432000011       6.25277124E-03
  0.432999998       6.14542281E-03
  0.433999985       6.03891350E-03
  0.435000002       5.93337044E-03
  0.435999990       5.82891982E-03
  0.437000006       5.72568737E-03
  0.437999994       5.62379835E-03
  0.439000010       5.52337524E-03
  0.439999998       5.42454002E-03
  0.441000015       5.32741146E-03
  0.442000002       5.23210550E-03
  0.442999989       5.13873529E-03
  0.444000006       5.04740747E-03
  0.444999993       4.95822541E-03
  0.446000010       4.87128599E-03
  0.446999997       4.78668278E-03
  0.448000014       4.70450241E-03
  0.449000001       4.62482823E-03
  0.449999988       4.54773847E-03
  0.451000005       4.47330670E-03
  0.451999992       4.40160278E-03
  0.453000009       4.33269236E-03
  0.453999996       4.26663551E-03
  0.455000013       4.20348672E-03
  0.456000000       4.14329441E-03
  0.456999987       4.08610189E-03
  0.458000004       4.03194502E-03
  0.458999991       3.98085313E-03
  0.460000008       3.93284811E-03
  0.460999995       3.88794579E-03
  0.462000012       3.84615432E-03
  0.463000000       3.80747672E-03
  0.463999987       3.77190975E-03
  0.465000004       3.73944500E-03
  0.465999991       3.71006946E-03
  0.467000008       3.68376588E-03
  0.467999995       3.66051216E-03
  0.469000012       3.64028173E-03
  0.469999999       3.62304319E-03
  0.470999986       3.60875926E-03
  0.472000003       3.59738758E-03
  0.472999990       3.58887902E-03
  0.474000007       3.58317862E-03
  0.474999994       3.58022633E-03
  0.476000011       3.57995718E-03
  0.476999998       3.58230155E-03
  0.477999985       3.58718704E-03
  0.479000002       3.59453936E-03
  0.479999989       3.60428146E-03
  0.481000006       3.61633464E-03
  0.481999993       3.63061880E-03
  0.483000010       3.64705129E-03
  0.483999997       3.66554759E-03
  0.485000014       3.68602108E-03
  0.486000001       3.70838190E-03
  0.486999989       3.73253808E-03
  0.488000005       3.75839532E-03
  0.488999993       3.78585793E-03
  0.490000010       3.81482881E-03
  0.490999997       3.84520995E-03
  0.492000014       3.87690449E-03
  0.493000001       3.90981603E-03
  0.493999988       3.94384982E-03
  0.495000005       3.97891272E-03
  0.495999992       4.01491346E-03
  0.497000009       4.05176170E-03
  0.497999996       4.08936897E-03
  0.499000013       4.12764773E-03
  0.500000000       4.16651042E-03
  0.500999987       4.20586951E-03
  0.501999974       4.24563745E-03
  0.503000021       4.28572856E-03
  0.504000008       4.32605762E-03
  0.504999995       4.36654221E-03
  0.505999982       4.40710410E-03
  0.507000029       4.44766879E-03
  0.508000016       4.48816596E-03
  0.509000003       4.52853087E-03
  0.509999990       4.56870208E-03
  0.510999978       4.60862089E-03
  0.512000024       4.64823144E-03
  0.513000011       4.68747737E-03
  0.513999999       4.72630421E-03
  0.514999986       4.76465747E-03
  0.515999973       4.80248453E-03
  0.517000020       4.83973557E-03
  0.518000007       4.87636449E-03
  0.518999994       4.91232891E-03
  0.519999981       4.94759157E-03
  0.521000028       4.98212082E-03
  0.522000015       5.01588918E-03
  0.523000002       5.04887244E-03
  0.523999989       5.08104870E-03
  0.524999976       5.11239795E-03
  0.526000023       5.14290016E-03
  0.527000010       5.17253717E-03
  0.527999997       5.20129083E-03
  0.528999984       5.22914622E-03
  0.529999971       5.25609078E-03
  0.531000018       5.28211426E-03
  0.532000005       5.30721014E-03
  0.532999992       5.33137564E-03
  0.533999979       5.35460981E-03
  0.535000026       5.37691452E-03
  0.536000013       5.39829256E-03
  0.537000000       5.41874859E-03
  0.537999988       5.43828728E-03
  0.538999975       5.45691559E-03
  0.540000021       5.47463959E-03
  0.541000009       5.49146766E-03
  0.541999996       5.50741004E-03
  0.542999983       5.52247744E-03
  0.544000030       5.53668290E-03
  0.545000017       5.55004086E-03
  0.546000004       5.56256622E-03
  0.546999991       5.57427481E-03
  0.547999978       5.58518386E-03
  0.549000025       5.59530966E-03
  0.550000012       5.60467038E-03
  0.550999999       5.61328372E-03
  0.551999986       5.62116783E-03
  0.552999973       5.62834134E-03
  0.554000020       5.63482428E-03
  0.555000007       5.64063666E-03
  0.555999994       5.64579759E-03
  0.556999981       5.65032801E-03
  0.558000028       5.65424748E-03
  0.559000015       5.65757696E-03
  0.560000002       5.66033646E-03
  0.560999990       5.66254603E-03
  0.561999977       5.66422567E-03
  0.563000023       5.66539448E-03
  0.564000010       5.66607248E-03
  0.564999998       5.66627877E-03
  0.565999985       5.66603336E-03
  0.566999972       5.66535583E-03
  0.568000019       5.66426571E-03
  0.569000006       5.66278165E-03
  0.569999993       5.66092320E-03
  0.570999980       5.65870898E-03
  0.572000027       5.65615762E-03
  0.573000014       5.65328635E-03
  0.574000001       5.65011334E-03
  0.574999988       5.64665440E-03
  0.575999975       5.64292632E-03
  0.577000022       5.63894352E-03
  0.578000009       5.63472137E-03
  0.578999996       5.63027337E-03
  0.579999983       5.62561303E-03
  0.580999970       5.62075479E-03
  0.582000017       5.61571214E-03
  0.583000004       5.61049860E-03
  0.583999991       5.60512813E-03
  0.584999979       5.59961423E-03
  0.586000025       5.59396995E-03
  0.587000012       5.58820693E-03
  0.588000000       5.58233680E-03
  0.588999987       5.57636935E-03
  0.589999974       5.57031436E-03
  0.591000021       5.56417974E-03
  0.592000008       5.55797294E-03
  0.592999995       5.55170188E-03
  0.593999982       5.54537354E-03
  0.595000029       5.53899491E-03
  0.596000016       5.53257391E-03
  0.597000003       5.52611751E-03
  0.597999990       5.51963318E-03
  0.598999977       5.51312696E-03
  0.600000024       5.50660584E-03
  0.601000011       5.50007494E-03
  0.601999998       5.49354078E-03
  0.602999985       5.48700895E-03
  0.603999972       5.48048364E-03
  0.605000019       5.47396950E-03
  0.606000006       5.46746887E-03
  0.606999993       5.46098594E-03
  0.607999980       5.45452256E-03
  0.609000027       5.44808153E-03
  0.610000014       5.44166472E-03
  0.611000001       5.43527398E-03
  0.611999989       5.42891212E-03
  0.612999976       5.42258285E-03
  0.614000022       5.41628851E-03
  0.615000010       5.41003374E-03
  0.615999997       5.40382275E-03
  0.616999984       5.39765833E-03
  0.617999971       5.39154327E-03
  0.619000018       5.38547849E-03
  0.620000005       5.37946494E-03
  0.620999992       5.37350262E-03
  0.621999979       5.36759058E-03
  0.623000026       5.36172930E-03
  0.624000013       5.35591878E-03
  0.625000000       5.35016041E-03
  0.625999987       5.34445606E-03
  0.626999974       5.33880806E-03
  0.628000021       5.33321965E-03
  0.629000008       5.32769365E-03
  0.629999995       5.32223238E-03
  0.630999982       5.31683723E-03
  0.632000029       5.31150773E-03
  0.633000016       5.30624343E-03
  0.634000003       5.30104339E-03
  0.634999990       5.29590622E-03
  0.635999978       5.29083097E-03
  0.637000024       5.28581813E-03
  0.638000011       5.28086768E-03
  0.638999999       5.27598150E-03
  0.639999986       5.27116051E-03
  0.640999973       5.26640611E-03
  0.642000020       5.26171876E-03
  0.643000007       5.25709940E-03
  0.643999994       5.25254803E-03
  0.644999981       5.24806324E-03
  0.646000028       5.24364505E-03
  0.647000015       5.23929251E-03
  0.648000002       5.23500470E-03
  0.648999989       5.23077976E-03
  0.649999976       5.22661628E-03
  0.651000023       5.22251334E-03
  0.652000010       5.21846907E-03
  0.652999997       5.21448301E-03
  0.653999984       5.21055469E-03
  0.654999971       5.20668365E-03
  0.656000018       5.20286988E-03
  0.657000005       5.19911293E-03
  0.657999992       5.19541325E-03
  0.658999979       5.19176945E-03
  0.660000026       5.18817920E-03
  0.661000013       5.18463971E-03
  0.662000000       5.18114865E-03
  0.662999988       5.17770369E-03
  0.663999975       5.17430343E-03
  0.665000021       5.17094601E-03
  0.666000009       5.16763143E-03
  0.666999996       5.16436016E-03
  0.667999983       5.16113220E-03
  0.669000030       5.15794801E-03
  0.670000017       5.15480619E-03
  0.671000004       5.15170535E-03
  0.671999991       5.14864270E-03
  0.672999978       5.14561636E-03
  0.674000025       5.14262356E-03
  0.675000012       5.13966242E-03
  0.675999999       5.13673201E-03
  0.676999986       5.13383187E-03
  0.677999973       5.13096247E-03
  0.679000020       5.12812473E-03
  0.680000007       5.12531865E-03
  0.680999994       5.12254471E-03
  0.681999981       5.11980150E-03
  0.683000028       5.11708762E-03
  0.684000015       5.11440123E-03
  0.685000002       5.11174044E-03
  0.685999990       5.10910386E-03
  0.686999977       5.10649290E-03
  0.688000023       5.10390708E-03
  0.689000010       5.10134827E-03
  0.689999998       5.09881834E-03
  0.690999985       5.09631727E-03
  0.691999972       5.09384600E-03
  0.693000019       5.09140315E-03
  0.694000006       5.08898729E-03
  0.694999993       5.08659752E-03
  0.695999980       5.08423196E-03