 -0.159999996       0.00000000    
 -0.158999994       0.00000000    
 -0.158000007       0.00000000    
 -0.157000005       0.00000000    
 -0.156000003       0.00000000    
 -0.155000001       0.00000000    
 -0.153999999       0.00000000    
 -0.152999997      -7.45321108E-25
 -0.151999995      -9.39311116E-24
 -0.150999993      -6.14622799E-23
 -0.150000006      -2.76973683E-22
 -0.149000004      -9.62327304E-22
 -0.148000002      -2.73599540E-21
 -0.147000000      -6.59134307E-21
 -0.145999998      -1.37204109E-20
 -0.144999996      -2.47967276E-20
 -0.143999994      -3.81834099E-20
 -0.143000007      -4.61092962E-20
 -0.142000005      -2.73982866E-20
 -0.141000003       6.42495416E-20
 -0.140000001       3.14074533E-19
 -0.138999999       8.50791604E-19
 -0.137999997       1.81476106E-18
 -0.136999995       3.24572996E-18
 -0.136000007       4.84458385E-18
 -0.135000005       5.60631793E-18
 -0.134000003       3.43856706E-18
 -0.133000001      -4.92361972E-18
 -0.131999999      -2.31793643E-17
 -0.130999997      -5.32894864E-17
 -0.129999995      -9.15496106E-17
 -0.128999993      -1.23488470E-16
 -0.128000006      -1.19733600E-16
 -0.127000004      -3.68454534E-17
 -0.126000002       1.71684552E-16
 -0.125000000       5.30034784E-16
 -0.123999998       1.00067001E-15
 -0.123000003       1.44039784E-15
 -0.122000001       1.57322214E-15
 -0.120999999       1.01175926E-15
 -0.119999997      -6.39499658E-16
 -0.119000003      -3.58159369E-15
 -0.118000001      -7.54033388E-15
 -0.116999999      -1.14874727E-14
 -0.115999997      -1.35077555E-14
 -0.115000002      -1.09952229E-14
 -0.114000000      -1.33925015E-15
 -0.112999998       1.68576362E-14
 -0.112000003       4.22110839E-14
 -0.111000001       6.91079342E-14
 -0.109999999       8.71225021E-14
 -0.108999997       8.21452213E-14
 -0.108000003       3.98687092E-14
 -0.107000001      -4.83395706E-14
 -0.105999999      -1.78152984E-13
 -0.104999997      -3.25750467E-13
 -0.104000002      -4.45158857E-13
 -0.103000000      -4.72824525E-13
 -0.101999998      -3.41750039E-13
 -0.101000004      -5.02968757E-15
 -0.100000001       5.35137744E-13
  -9.89999995E-02   1.20104230E-12
  -9.79999974E-02   1.82689866E-12
  -9.70000029E-02   2.17180917E-12
  -9.60000008E-02   1.96624010E-12
  -9.49999988E-02   9.91629738E-13
  -9.39999968E-02  -8.19307946E-13
  -9.30000022E-02  -3.28698939E-12
  -9.20000002E-02  -5.92910486E-12
  -9.09999982E-02  -7.98099954E-12
  -9.00000036E-02  -8.51827636E-12
  -8.90000015E-02  -6.68398366E-12
  -8.79999995E-02  -1.98903480E-12
  -8.69999975E-02   5.38179354E-12
  -8.60000029E-02   1.43535661E-11
  -8.50000009E-02   2.29367011E-11
  -8.39999989E-02   2.84728820E-11
  -8.29999968E-02   2.81733439E-11
  -8.20000023E-02   1.98889308E-11
  -8.10000002E-02   2.96033966E-12
  -7.99999982E-02  -2.10765034E-11
  -7.90000036E-02  -4.81832005E-11
  -7.80000016E-02  -7.21236820E-11
  -7.69999996E-02  -8.54807267E-11
  -7.59999976E-02  -8.13077730E-11
  -7.50000030E-02  -5.51372559E-11
  -7.40000010E-02  -6.89008095E-12
  -7.29999989E-02   5.78620450E-11
  -7.19999969E-02   1.27791416E-10
  -7.10000023E-02   1.87187127E-10
  -7.00000003E-02   2.18804114E-10
  -6.89999983E-02   2.07792644E-10
  -6.80000037E-02   1.45938081E-10
  -6.70000017E-02   3.51951766E-11
  -6.59999996E-02  -1.10526213E-10
  -6.49999976E-02  -2.66124706E-10
  -6.40000030E-02  -3.98926586E-10
  -6.30000010E-02  -4.74804696E-10
  -6.19999990E-02  -4.65757155E-10
  -6.10000007E-02  -3.57373492E-10
  -5.99999987E-02  -1.54395705E-10
  -5.90000004E-02   1.17227658E-10
  -5.79999983E-02   4.12782336E-10
  -5.70000000E-02   6.75777712E-10
  -5.60000017E-02   8.48474402E-10
  -5.49999997E-02   8.83992768E-10
  -5.40000014E-02   7.57462537E-10
  -5.29999994E-02   4.73629636E-10
  -5.20000011E-02   6.88956739E-11
  -5.09999990E-02  -3.93155175E-10
  -5.00000007E-02  -8.32301006E-10
  -4.89999987E-02  -1.16647081E-09
  -4.80000004E-02  -1.32788458E-09
  -4.69999984E-02  -1.27718047E-09
  -4.60000001E-02  -1.01242548E-09
  -4.50000018E-02  -5.70878511E-10
  -4.39999998E-02  -2.28687954E-11
  -4.30000015E-02   5.41159284E-10
  -4.19999994E-02   1.02786524E-09
  -4.10000011E-02   1.35893841E-09
  -3.99999991E-02   1.48594803E-09
  -3.90000008E-02   1.39894119E-09
  -3.79999988E-02   1.12693799E-09
  -3.70000005E-02   7.30229877E-10
  -3.59999985E-02   2.86197344E-10
  -3.50000001E-02  -1.28177982E-10
  -3.40000018E-02  -4.53157123E-10
  -3.29999998E-02  -6.58587684E-10
  -3.20000015E-02  -7.48855367E-10
  -3.09999995E-02  -7.59189378E-10
  -2.99999993E-02  -7.44040662E-10
  -2.89999992E-02  -7.60125574E-10
  -2.80000009E-02  -8.48091319E-10
  -2.70000007E-02  -1.01728226E-09
  -2.60000005E-02  -1.23762145E-09
  -2.50000004E-02  -1.44122225E-09
  -2.40000002E-02  -1.53427082E-09
  -2.30000000E-02  -1.41739309E-09
  -2.19999999E-02  -1.01063202E-09
  -2.09999997E-02  -2.77791457E-10
  -1.99999996E-02   7.55421448E-10
  -1.89999994E-02   1.99414463E-09
  -1.79999992E-02   3.28075367E-09
  -1.70000009E-02   4.41498393E-09
  -1.60000008E-02   5.18501997E-09
  -1.49999997E-02   5.40434453E-09
  -1.40000004E-02   4.94763253E-09
  -1.30000003E-02   3.77877640E-09
  -1.20000001E-02   1.96532812E-09
  -1.09999999E-02  -3.23982868E-10
  -9.99999978E-03  -2.83886781E-09
  -8.99999961E-03  -5.28122390E-09
  -8.00000038E-03  -7.34732808E-09
  -7.00000022E-03  -8.77122108E-09
  -6.00000005E-03  -9.36188815E-09
  -4.99999989E-03  -9.02811781E-09
  -4.00000019E-03  -7.78737785E-09
  -3.00000003E-03  -5.75814241E-09
  -2.00000009E-03  -3.13815440E-09
  -1.00000005E-03  -1.73571532E-10
   0.00000000       2.87475022E-09
   1.00000005E-03   5.76162007E-09
   2.00000009E-03   8.27962765E-09
   3.00000003E-03   1.02704103E-08
   4.00000019E-03   1.16251737E-08
   4.99999989E-03   1.22771011E-08
   6.00000005E-03   1.21900268E-08
   7.00000022E-03   1.13483587E-08
   8.00000038E-03   9.75250991E-09
   8.99999961E-03   7.42220463E-09
   9.99999978E-03   4.40740955E-09
   1.09999999E-02   8.03881184E-10
   1.20000001E-02  -3.23190807E-09
   1.30000003E-02  -7.47473017E-09
   1.40000004E-02  -1.16352217E-08
   1.49999997E-02  -1.53808344E-08
   1.60000008E-02  -1.83734077E-08
   1.70000009E-02  -2.03195967E-08
   1.79999992E-02  -2.10266791E-08
   1.89999994E-02  -2.04536477E-08
   1.99999996E-02  -1.87467926E-08
   2.09999997E-02  -1.62506684E-08
   2.19999999E-02  -1.34890445E-08
   2.30000000E-02  -1.11157945E-08
   2.40000002E-02  -9.84145032E-09
   2.50000004E-02  -1.03461835E-08
   2.60000005E-02  -1.31931142E-08
   2.70000007E-02  -1.87563920E-08
   2.80000009E-02  -2.71761067E-08
   2.89999992E-02  -3.83473981E-08
   2.99999993E-02  -5.19449870E-08
   3.09999995E-02  -6.74781901E-08
   3.20000015E-02  -8.43664694E-08
   3.29999998E-02  -1.02022931E-07
   3.40000018E-02  -1.19933006E-07
   3.50000001E-02  -1.37718061E-07
   3.59999985E-02  -1.55177858E-07
   3.70000005E-02  -1.72310294E-07
   3.79999988E-02  -1.89311294E-07
   3.90000008E-02  -2.06560074E-07
   3.99999991E-02  -2.24596178E-07
   4.10000011E-02  -2.44093684E-07
   4.19999994E-02  -2.65835951E-07
   4.30000015E-02  -2.90691986E-07
   4.39999998E-02  -3.19593852E-07
   4.50000018E-02  -3.53513826E-07
   4.60000001E-02  -3.93439734E-07
   4.69999984E-02  -4.40349595E-07
   4.80000004E-02  -4.95186725E-07
   4.89999987E-02  -5.58838678E-07
   5.00000007E-02  -6.32123829E-07
   5.09999990E-02  -7.15787621E-07
   5.20000011E-02  -8.10511210E-07
   5.29999994E-02  -9.16930560E-07
   5.40000014E-02  -1.03566435E-06
   5.49999997E-02  -1.16734702E-06
   5.60000017E-02  -1.31266302E-06
   5.70000000E-02  -1.47238018E-06
   5.79999983E-02  -1.64738060E-06
   5.90000004E-02  -1.83869031E-06
   5.99999987E-02  -2.04750927E-06
   6.10000007E-02  -2.27524333E-06
   6.19999990E-02  -2.52354107E-06
   6.30000010E-02  -2.79433402E-06
   6.40000030E-02  -3.08987705E-06
   6.49999976E-02  -3.41278542E-06
   6.59999996E-02  -3.76606226E-06
   6.70000017E-02  -4.15310933E-06
   6.80000037E-02  -4.57771648E-06
   6.89999983E-02  -5.04403124E-06
   7.00000003E-02  -5.55650468E-06
   7.10000023E-02  -6.11982796E-06
   7.19999969E-02  -6.73885916E-06
   7.29999989E-02  -7.41856093E-06
   7.40000010E-02  -8.16395459E-06
   7.50000030E-02  -8.98009785E-06
   7.59999976E-02  -9.87209478E-06
   7.69999996E-02  -1.08451331E-05
   7.80000016E-02  -1.19045508E-05
   7.90000036E-02  -1.30559129E-05
   7.99999982E-02  -1.43050938E-05
   8.10000002E-02  -1.56583592E-05
   8.20000023E-02  -1.71224292E-05
   8.29999968E-02  -1.87045298E-05
   8.39999989E-02  -2.04124299E-05
   8.50000009E-02  -2.22544732E-05
   8.60000029E-02  -2.42396018E-05
   8.69999975E-02  -2.63773782E-05
   8.79999995E-02  -2.86780214E-05
   8.90000015E-02  -3.11524382E-05
   9.00000036E-02  -3.38122481E-05
   9.09999982E-02  -3.66697750E-05
   9.20000002E-02  -3.97380463E-05
   9.30000022E-02  -4.30307227E-05
   9.39999968E-02  -4.65620142E-05
   9.49999988E-02  -5.03465526E-05
   9.60000008E-02  -5.43992901E-05
   9.70000029E-02  -5.87353643E-05
   9.79999974E-02  -6.33700402E-05
   9.89999995E-02  -6.83186590E-05
  0.100000001      -7.35966896E-05
  0.101000004      -7.92197825E-05
  0.101999998      -8.52039375E-05
  0.103000000      -9.15656128E-05
  0.104000002      -9.83218633E-05
  0.104999997      -1.05490421E-04
  0.105999999      -1.13089744E-04
  0.107000001      -1.21138975E-04
  0.108000003      -1.29657798E-04
  0.108999997      -1.38666364E-04
  0.109999999      -1.48184990E-04
  0.111000001      -1.58234063E-04
  0.112000003      -1.68833867E-04
  0.112999998      -1.80004485E-04
  0.114000000      -1.91765706E-04
  0.115000002      -2.04137104E-04
  0.115999997      -2.17137975E-04
  0.116999999      -2.30787482E-04
  0.118000001      -2.45104689E-04
  0.119000003      -2.60108471E-04
  0.119999997      -2.75817612E-04
  0.120999999      -2.92250712E-04
  0.122000001      -3.09426017E-04
  0.123000003      -3.27361195E-04
  0.123999998      -3.46073328E-04
  0.125000000      -3.65578569E-04
  0.126000002      -3.85892083E-04
  0.127000004      -4.07027925E-04
  0.128000006      -4.28998930E-04
  0.128999993      -4.51816741E-04
  0.129999995      -4.75491746E-04
  0.130999997      -5.00032969E-04
  0.131999999      -5.25448238E-04
  0.133000001      -5.51744131E-04
  0.134000003      -5.78925770E-04
  0.135000005      -6.06997055E-04
  0.136000007      -6.35960372E-04
  0.136999995      -6.65816828E-04
  0.137999997      -6.96566072E-04
  0.138999999      -7.28206185E-04
  0.140000001      -7.60733848E-04
  0.141000003      -7.94144056E-04
  0.142000005      -8.28430173E-04
  0.143000007      -8.63583875E-04
  0.143999994      -8.99594859E-04
  0.144999996      -9.36450670E-04
  0.145999998      -9.74136696E-04
  0.147000000      -1.01263600E-03
  0.148000002      -1.05192943E-03
  0.149000004      -1.09199539E-03
  0.150000006      -1.13281037E-03
  0.150999993      -1.17434899E-03
  0.151999995      -1.21658423E-03
  0.152999997      -1.25948770E-03
  0.153999999      -1.30303006E-03
  0.155000001      -1.34718092E-03
  0.156000003      -1.39190897E-03
  0.157000005      -1.43718149E-03
  0.158000007      -1.48296496E-03
  0.158999994      -1.52922445E-03
  0.159999996      -1.57592352E-03
  0.160999998      -1.62302435E-03
  0.162000000      -1.67048769E-03
  0.163000003      -1.71827315E-03
  0.164000005      -1.76633941E-03
  0.165000007      -1.81464420E-03
  0.165999994      -1.86314504E-03
  0.166999996      -1.91179942E-03
  0.167999998      -1.96056464E-03
  0.169000000      -2.00939807E-03
  0.170000002      -2.05825805E-03
  0.171000004      -2.10710312E-03
  0.172000006      -2.15589209E-03
  0.172999993      -2.20458466E-03
  0.173999995      -2.25314125E-03
  0.174999997      -2.30152323E-03
  0.175999999      -2.34969240E-03
  0.177000001      -2.39761127E-03
  0.178000003      -2.44524376E-03
  0.179000005      -2.49255402E-03
  0.180000007      -2.53950758E-03
  0.180999994      -2.58607138E-03
  0.181999996      -2.63221283E-03
  0.182999998      -2.67790118E-03
  0.184000000      -2.72310711E-03
  0.185000002      -2.76780268E-03
  0.186000004      -2.81196251E-03
  0.187000006      -2.85556307E-03
  0.187999994      -2.89858296E-03
  0.188999996      -2.94100353E-03
  0.189999998      -2.98280851E-03
  0.191000000      -3.02398368E-03
  0.192000002      -3.06451670E-03
  0.193000004      -3.10439686E-03
  0.194000006      -3.14361509E-03
  0.194999993      -3.18216369E-03
  0.195999995      -3.22003569E-03
  0.196999997      -3.25722597E-03
  0.197999999      -3.29373102E-03
  0.199000001      -3.32954875E-03
  0.200000003      -3.36467917E-03
  0.201000005      -3.39912414E-03
  0.202000007      -3.43288784E-03
  0.202999994      -3.46597610E-03
  0.203999996      -3.49839707E-03
  0.204999998      -3.53016006E-03
  0.206000000      -3.56127648E-03
  0.207000002      -3.59175866E-03
  0.208000004      -3.62161989E-03
  0.209000006      -3.65087530E-03
  0.209999993      -3.67954117E-03
  0.210999995      -3.70763475E-03
  0.211999997      -3.73517512E-03
  0.213000000      -3.76218278E-03
  0.214000002      -3.78867937E-03
  0.215000004      -3.81468795E-03
  0.216000006      -3.84023273E-03
  0.216999993      -3.86533863E-03
  0.217999995      -3.89003148E-03
  0.218999997      -3.91433761E-03
  0.219999999      -3.93828377E-03
  0.221000001      -3.96189746E-03
  0.222000003      -3.98520660E-03
  0.223000005      -4.00824100E-03
  0.224000007      -4.03103046E-03
  0.224999994      -4.05360712E-03
  0.225999996      -4.07600449E-03
  0.226999998      -4.09825565E-03
  0.228000000      -4.12039692E-03
  0.229000002      -4.14246414E-03
  0.230000004      -4.16449504E-03
  0.231000006      -4.18652734E-03
  0.231999993      -4.20860015E-03
  0.232999995      -4.23075212E-03
  0.233999997      -4.25302377E-03
  0.234999999      -4.27545421E-03
  0.236000001      -4.29808488E-03
  0.237000003      -4.32095630E-03
  0.238000005      -4.34411084E-03
  0.238999993      -4.36759135E-03
  0.239999995      -4.39144205E-03
  0.240999997      -4.41570766E-03
  0.241999999      -4.44043288E-03
  0.243000001      -4.46566334E-03
  0.244000003      -4.49144421E-03
  0.245000005      -4.51782020E-03
  0.246000007      -4.54483647E-03
  0.246999994      -4.57253726E-03
  0.247999996      -4.60096635E-03
  0.248999998      -4.63016657E-03
  0.250000000      -4.66018124E-03
  0.250999987      -4.69105178E-03
  0.252000004      -4.72281920E-03
  0.252999991      -4.75552399E-03
  0.254000008      -4.78920527E-03
  0.254999995      -4.82389983E-03
  0.256000012      -4.85964259E-03
  0.256999999      -4.89646615E-03
  0.257999986      -4.93440079E-03
  0.259000003      -4.97347442E-03
  0.259999990      -5.01371128E-03
  0.261000007      -5.05513325E-03
  0.261999995      -5.09775756E-03
  0.263000011      -5.14159771E-03
  0.263999999      -5.18666347E-03
  0.264999986      -5.23295952E-03
  0.266000003      -5.28048677E-03
  0.266999990      -5.32924058E-03
  0.268000007      -5.37921069E-03
  0.268999994      -5.43038268E-03
  0.270000011      -5.48273558E-03
  0.270999998      -5.53624332E-03
  0.272000015      -5.59087377E-03
  0.273000002      -5.64658921E-03
  0.273999989      -5.70334680E-03
  0.275000006      -5.76109672E-03
  0.275999993      -5.81978355E-03
  0.277000010      -5.87934628E-03
  0.277999997      -5.93971740E-03
  0.279000014      -6.00082241E-03
  0.280000001      -6.06258120E-03
  0.280999988      -6.12490717E-03
  0.282000005      -6.18770719E-03
  0.282999992      -6.25088252E-03
  0.284000009      -6.31432794E-03
  0.284999996      -6.37793262E-03
  0.286000013      -6.44158106E-03
  0.287000000      -6.50515128E-03
  0.287999988      -6.56851754E-03
  0.289000005      -6.63154898E-03
  0.289999992      -6.69411197E-03
  0.291000009      -6.75606821E-03
  0.291999996      -6.81727752E-03
  0.293000013      -6.87759649E-03
  0.294000000      -6.93688029E-03
  0.294999987      -6.99498085E-03
  0.296000004      -7.05174915E-03
  0.296999991      -7.10703479E-03
  0.298000008      -7.16068828E-03
  0.298999995      -7.21255923E-03
  0.300000012      -7.26249861E-03
  0.300999999      -7.31035927E-03
  0.301999986      -7.35599734E-03
  0.303000003      -7.39927078E-03
  0.303999990      -7.44004175E-03
  0.305000007      -7.47817708E-03
  0.305999994      -7.51354732E-03
  0.307000011      -7.54602812E-03
  0.307999998      -7.57550076E-03
  0.308999985      -7.60185299E-03
  0.310000002      -7.62497820E-03
  0.310999990      -7.64477672E-03
  0.312000006      -7.66115775E-03
  0.312999994      -7.67403841E-03
  0.314000010      -7.68334512E-03
  0.314999998      -7.68901268E-03
  0.316000015      -7.69098615E-03
  0.317000002      -7.68922037E-03
  0.317999989      -7.68368086E-03
  0.319000006      -7.67434202E-03
  0.319999993      -7.66118895E-03
  0.321000010      -7.64421746E-03
  0.321999997      -7.62343267E-03
  0.323000014      -7.59885088E-03
  0.324000001      -7.57049816E-03
  0.324999988      -7.53841037E-03
  0.326000005      -7.50263361E-03
  0.326999992      -7.46322470E-03
  0.328000009      -7.42024835E-03
  0.328999996      -7.37378094E-03
  0.330000013      -7.32390676E-03
  0.331000000      -7.27072032E-03
  0.331999987      -7.21432455E-03
  0.333000004      -7.15483120E-03
  0.333999991      -7.09235948E-03
  0.335000008      -7.02703791E-03
  0.335999995      -6.95900060E-03
  0.337000012      -6.88838912E-03
  0.338000000      -6.81534968E-03
  0.338999987      -6.74003456E-03
  0.340000004      -6.66259974E-03
  0.340999991      -6.58320449E-03
  0.342000008      -6.50201086E-03
  0.342999995      -6.41918369E-03
  0.344000012      -6.33489061E-03
  0.344999999      -6.24930020E-03
  0.345999986      -6.16258197E-03
  0.347000003      -6.07490726E-03
  0.347999990      -5.98644605E-03
  0.349000007      -5.89737017E-03
  0.349999994      -5.80784911E-03
  0.351000011      -5.71805052E-03
  0.351999998      -5.62814018E-03
  0.352999985      -5.53828012E-03
  0.354000002      -5.44862868E-03
  0.354999989      -5.35933906E-03
  0.356000006      -5.27055981E-03
  0.356999993      -5.18243480E-03
  0.358000010      -5.09510236E-03
  0.358999997      -5.00869472E-03
  0.360000014      -4.92333993E-03
  0.361000001      -4.83915955E-03
  0.361999989      -4.75627091E-03
  0.363000005      -4.67478484E-03
  0.363999993      -4.59480658E-03
  0.365000010      -4.51643579E-03
  0.365999997      -4.43976372E-03
  0.367000014      -4.36487515E-03
  0.368000001      -4.29184781E-03
  0.368999988      -4.22075018E-03
  0.370000005      -4.15164465E-03
  0.370999992      -4.08458523E-03
  0.372000009      -4.01961943E-03
  0.372999996      -3.95678682E-03
  0.374000013      -3.89612070E-03
  0.375000000      -3.83764831E-03
  0.375999987      -3.78139061E-03
  0.377000004      -3.72736226E-03
  0.377999991      -3.67557257E-03
  0.379000008      -3.62602505E-03
  0.379999995      -3.57871829E-03
  0.381000012      -3.53364530E-03
  0.381999999      -3.49079422E-03
  0.382999986      -3.45014851E-03
  0.384000003      -3.41168675E-03
  0.384999990      -3.37538263E-03
  0.386000007      -3.34120612E-03
  0.386999995      -3.30912205E-03
  0.388000011      -3.27909156E-03
  0.388999999      -3.25107248E-03
  0.389999986      -3.22501897E-03
  0.391000003      -3.20088281E-03
  0.391999990      -3.17861303E-03
  0.393000007      -3.15815723E-03
  0.393999994      -3.13946069E-03
  0.395000011      -3.12246731E-03
  0.395999998      -3.10711958E-03
  0.397000015      -3.09335906E-03
  0.398000002      -3.08112614E-03
  0.398999989      -3.07036005E-03
  0.400000006      -3.06099933E-03
  0.400999993      -3.05298204E-03
  0.402000010      -3.04624625E-03
  0.402999997      -3.04072956E-03
  0.404000014      -3.03637004E-03
  0.405000001      -3.03310575E-03
  0.405999988      -3.03087546E-03
  0.407000005      -3.02961841E-03
  0.407999992      -3.02927452E-03
  0.409000009      -3.02978465E-03
  0.409999996      -3.03109107E-03
  0.411000013      -3.03313695E-03
  0.412000000      -3.03586735E-03
  0.412999988      -3.03922873E-03
  0.414000005      -3.04316916E-03
  0.414999992      -3.04763811E-03
  0.416000009      -3.05258669E-03
  0.416999996      -3.05796741E-03
  0.418000013      -3.06373369E-03
  0.419000000      -3.06984084E-03
  0.419999987      -3.07624531E-03
  0.421000004      -3.08290543E-03
  0.421999991      -3.08978185E-03
  0.423000008      -3.09683708E-03
  0.423999995      -3.10403574E-03
  0.425000012      -3.11134453E-03
  0.425999999      -3.11873225E-03
  0.426999986      -3.12616979E-03
  0.428000003      -3.13362991E-03
  0.428999990      -3.14108701E-03
  0.430000007      -3.14851664E-03
  0.430999994      -3.15589574E-03
  0.432000011      -3.16320267E-03
  0.432999998      -3.17041739E-03
  0.433999985      -3.17752128E-03
  0.435000002      -3.18449689E-03
  0.435999990      -3.19132861E-03
  0.437000006      -3.19800177E-03
  0.437999994      -3.20450403E-03
  0.439000010      -3.21082422E-03
  0.439999998      -3.21695255E-03
  0.441000015      -3.22288089E-03
  0.442000002      -3.22860200E-03
  0.442999989      -3.23410961E-03
  0.444000006      -3.23939906E-03
  0.444999993      -3.24446638E-03
  0.446000010      -3.24930833E-03
  0.446999997      -3.25392326E-03
  0.448000014      -3.25831003E-03
  0.449000001      -3.26246838E-03
  0.449999988      -3.26639949E-03
  0.451000005      -3.27010546E-03
  0.451999992      -3.27358884E-03
  0.453000009      -3.27685243E-03
  0.453999996      -3.27989971E-03
  0.455000013      -3.28273396E-03
  0.456000000      -3.28535819E-03
  0.456999987      -3.28777521E-03
  0.458000004      -3.28998826E-03
  0.458999991      -3.29200062E-03
  0.460000008      -3.29381553E-03
  0.460999995      -3.29543720E-03
  0.462000012      -3.29687027E-03
  0.463000000      -3.29811964E-03
  0.463999987      -3.29919113E-03
  0.465000004      -3.30009055E-03
  0.465999991      -3.30082467E-03
  0.467000008      -3.30139976E-03
  0.467999995      -3.30182281E-03
  0.469000012      -3.30210058E-03
  0.469999999      -3.30224005E-03
  0.470999986      -3.30224773E-03
  0.472000003      -3.30212992E-03
  0.472999990      -3.30189243E-03
  0.474000007      -3.30154039E-03
  0.474999994      -3.30107892E-03
  0.476000011      -3.30051221E-03
  0.476999998      -3.29984422E-03
  0.477999985      -3.29907937E-03
  0.479000002      -3.29822279E-03
  0.479999989      -3.29727959E-03
  0.481000006      -3.29625607E-03
  0.481999993      -3.29515850E-03
  0.483000010      -3.29399318E-03
  0.483999997      -3.29276593E-03
  0.485000014      -3.29148117E-03
  0.486000001      -3.29014263E-03
  0.486999989      -3.28875287E-03
  0.488000005      -3.28731351E-03
  0.488999993      -3.28582595E-03
  0.490000010      -3.28429183E-03
  0.490999997      -3.28271394E-03
  0.492000014      -3.28109600E-03
  0.493000001      -3.27944243E-03
  0.493999988      -3.27775860E-03
  0.495000005      -3.27605056E-03
  0.495999992      -3.27432365E-03
  0.497000009      -3.27258278E-03
  0.497999996      -3.27083166E-03
  0.499000013      -3.26907239E-03
  0.500000000      -3.26730637E-03
  0.500999987      -3.26553383E-03
  0.501999974      -3.26375500E-03
  0.503000021      -3.26196989E-03
  0.504000008      -3.26017872E-03
  0.504999995      -3.25838197E-03
  0.505999982      -3.25658126E-03
  0.507000029      -3.25477822E-03
  0.508000016      -3.25297564E-03
  0.509000003      -3.25117633E-03
  0.509999990      -3.24938283E-03
  0.510999978      -3.24759772E-03
  0.512000024      -3.24582355E-03
  0.513000011      -3.24406149E-03
  0.513999999      -3.24231246E-03
  0.514999986      -3.24057648E-03
  0.515999973      -3.23885237E-03
  0.517000020      -3.23713943E-03
  0.518000007      -3.23543628E-03
  0.518999994      -3.23374243E-03
  0.519999981      -3.23205790E-03
  0.521000028      -3.23038339E-03
  0.522000015      -3.22872051E-03
  0.523000002      -3.22707114E-03
  0.523999989      -3.22543667E-03
  0.524999976      -3.22381849E-03
  0.526000023      -3.22221755E-03
  0.527000010      -3.22063337E-03
  0.527999997      -3.21906502E-03
  0.528999984      -3.21751088E-03
  0.529999971      -3.21596931E-03
  0.531000018      -3.21443914E-03
  0.532000005      -3.21291969E-03
  0.532999992      -3.21141095E-03
  0.533999979      -3.20991338E-03
  0.535000026      -3.20842862E-03
  0.536000013      -3.20695783E-03
  0.537000000      -3.20550241E-03
  0.537999988      -3.20406375E-03
  0.538999975      -3.20264231E-03
  0.540000021      -3.20123881E-03
  0.541000009      -3.19985254E-03
  0.541999996      -3.19848303E-03
  0.542999983      -3.19712935E-03
  0.544000030      -3.19579011E-03
  0.545000017      -3.19446390E-03
  0.546000004      -3.19314958E-03
  0.546999991      -3.19184619E-03
  0.547999978      -3.19055305E-03
  0.549000025      -3.18927015E-03
  0.550000012      -3.18799797E-03
  0.550999999      -3.18673765E-03
  0.551999986      -3.18549061E-03
  0.552999973      -3.18425847E-03
  0.554000020      -3.18304263E-03
  0.555000007      -3.18184355E-03
  0.555999994      -3.18066124E-03
  0.556999981      -3.17949476E-03
  0.558000028      -3.17834271E-03
  0.559000015      -3.17720324E-03
  0.560000002      -3.17607448E-03
  0.560999990      -3.17495549E-03
  0.561999977      -3.17384559E-03
  0.563000023      -3.17274500E-03
  0.564000010      -3.17165419E-03
  0.564999998      -3.17057432E-03
  0.565999985      -3.16950609E-03
  0.566999972      -3.16845067E-03
  0.568000019      -3.16740829E-03
  0.569000006      -3.16637894E-03
  0.569999993      -3.16536240E-03
  0.570999980      -3.16435797E-03
  0.572000027      -3.16336472E-03
  0.573000014      -3.16238217E-03
  0.574000001      -3.16140940E-03
  0.574999988      -3.16044595E-03
  0.575999975      -3.15949158E-03
  0.577000022      -3.15854605E-03
  0.578000009      -3.15761007E-03
  0.578999996      -3.15668457E-03
  0.579999983      -3.15577048E-03
  0.580999970      -3.15486919E-03
  0.582000017      -3.15398187E-03
  0.583000004      -3.15310899E-03
  0.583999991      -3.15225055E-03
  0.584999979      -3.15140584E-03
  0.586000025      -3.15057323E-03
  0.587000012      -3.14975088E-03
  0.588000000      -3.14893690E-03
  0.588999987      -3.14812991E-03
  0.589999974      -3.14732967E-03
  0.591000021      -3.14653688E-03
  0.592000008      -3.14575294E-03
  0.592999995      -3.14498018E-03
  0.593999982      -3.14422045E-03
  0.595000029      -3.14347586E-03
  0.596000016      -3.14274756E-03
  0.597000003      -3.14203533E-03
  0.597999990      -3.14133917E-03
  0.598999977      -3.14065814E-03
  0.600000024      -3.13999155E-03
  0.601000011      -3.13933915E-03
  0.601999998      -3.13870097E-03
  0.602999985      -3.13807721E-03
  0.603999972      -3.13746789E-03
  0.605000019      -3.13687325E-03
  0.606000006      -3.13629257E-03
  0.606999993      -3.13572423E-03
  0.607999980      -3.13516660E-03
  0.609000027      -3.13461805E-03
  0.610000014      -3.13407672E-03
  0.611000001      -3.13354144E-03
  0.611999989      -3.13301245E-03
  0.612999976      -3.13249021E-03
  0.614000022      -3.13197589E-03
  0.615000010      -3.13147088E-03
  0.615999997      -3.13097681E-03
  0.616999984      -3.13049462E-03
  0.617999971      -3.13002407E-03
  0.619000018      -3.12956469E-03
  0.620000005      -3.12911556E-03
  0.620999992      -3.12867505E-03
  0.621999979      -3.12824221E-03
  0.623000026      -3.12781590E-03
  0.624000013      -3.12739564E-03
  0.625000000      -3.12698097E-03
  0.625999987      -3.12657142E-03
  0.626999974      -3.12616723E-03
  0.628000021      -3.12576815E-03
  0.629000008      -3.12537444E-03
  0.629999995      -3.12498584E-03
  0.630999982      -3.12460214E-03
  0.632000029      -3.12422286E-03
  0.633000016      -3.12384777E-03
  0.634000003      -3.12347570E-03
  0.634999990      -3.12310597E-03
  0.635999978      -3.12273717E-03
  0.637000024      -3.12236790E-03
  0.638000011      -3.12199746E-03
  0.638999999      -3.12162517E-03
  0.639999986      -3.12125147E-03
  0.640999973      -3.12087685E-03
  0.642000020      -3.12050269E-03
  0.643000007      -3.12013016E-03
  0.643999994      -3.11976089E-03
  0.644999981      -3.11939628E-03
  0.646000028      -3.11903702E-03
  0.647000015      -3.11868382E-03
  0.648000002      -3.11833713E-03
  0.648999989      -3.11799766E-03
  0.649999976      -3.11766611E-03
  0.651000023      -3.11734271E-03
  0.652000010      -3.11702839E-03
  0.652999997      -3.11672338E-03
  0.653999984      -3.11642769E-03
  0.654999971      -3.11614037E-03
  0.656000018      -3.11585958E-03
  0.657000005      -3.11558344E-03
  0.657999992      -3.11531010E-03
  0.658999979      -3.11503769E-03
  0.660000026      -3.11476574E-03
  0.661000013      -3.11449473E-03
  0.662000000      -3.11422604E-03
  0.662999988      -3.11396178E-03
  0.663999975      -3.11370404E-03
  0.665000021      -3.11345491E-03
  0.666000009      -3.11321556E-03
  0.666999996      -3.11298645E-03
  0.667999983      -3.11276782E-03
  0.669000030      -3.11255944E-03
  0.670000017      -3.11236130E-03
  0.671000004      -3.11217341E-03
  0.671999991      -3.11199669E-03
  0.672999978      -3.11183208E-03
  0.674000025      -3.11168050E-03
  0.675000012      -3.11154290E-03
  0.675999999      -3.11141927E-03
  0.676999986      -3.11130960E-03
  0.677999973      -3.11121251E-03
  0.679000020      -3.11112683E-03
  0.680000007      -3.11105116E-03
  0.680999994      -3.11098434E-03
  0.681999981      -3.11092497E-03
  0.683000028      -3.11087258E-03
  0.684000015      -3.11082625E-03
  0.685000002      -3.11078550E-03
  0.685999990      -3.11074988E-03
  0.686999977      -3.11071845E-03
  0.688000023      -3.11069074E-03
  0.689000010      -3.11066653E-03
  0.689999998      -3.11064604E-03
  0.690999985      -3.11063044E-03
  0.691999972      -3.11062112E-03
  0.693000019      -3.11061926E-03
  0.694000006      -3.11062578E-03
  0.694999993      -3.11064115E-03
  0.695999980      -3.11066466E-03