 -0.159999996       0.00000000    
 -0.158999994       0.00000000    
 -0.158000007       0.00000000    
 -0.157000005       0.00000000    
 -0.156000003       1.41330497E-14
 -0.155000001       1.03013111E-13
 -0.153999999       3.93273820E-13
 -0.152999997       1.02566317E-12
 -0.151999995       1.99691869E-12
 -0.150999993       2.95140800E-12
 -0.150000006       3.09374531E-12
 -0.149000004       1.44131473E-12
 -0.148000002      -2.47353960E-12
 -0.147000000      -7.62270455E-12
 -0.145999998      -1.07391778E-11
 -0.144999996      -6.52745739E-12
 -0.143999994       1.06203085E-11
 -0.143000007       4.34630977E-11
 -0.142000005       8.82744849E-11
 -0.141000003       1.32507991E-10
 -0.140000001       1.55741295E-10
 -0.138999999       1.35098321E-10
 -0.137999997       5.46086162E-11
 -0.136999995      -8.42132822E-11
 -0.136000007      -2.54969157E-10
 -0.135000005      -4.06757905E-10
 -0.134000003      -4.75062545E-10
 -0.133000001      -4.02149952E-10
 -0.131999999      -1.61565997E-10
 -0.130999997       2.22041718E-10
 -0.129999995       6.67058631E-10
 -0.128999993       1.04902642E-09
 -0.128000006       1.23423649E-09
 -0.127000004       1.12443144E-09
 -0.126000002       6.98087699E-10
 -0.125000000       3.21316238E-11
 -0.123999998      -7.07588932E-10
 -0.123000003      -1.30890609E-09
 -0.122000001      -1.57858826E-09
 -0.120999999      -1.40967948E-09
 -0.119999997      -8.26603563E-10
 -0.119000003       1.12168460E-11
 -0.118000001       8.53359272E-10
 -0.116999999       1.43905754E-09
 -0.115999997       1.58862556E-09
 -0.115000002       1.27304278E-09
 -0.114000000       6.34086672E-10
 -0.112999998      -5.66082944E-11
 -0.112000003      -4.89300600E-10
 -0.111000001      -4.28536984E-10
 -0.109999999       1.93999691E-10
 -0.108999997       1.24188837E-09
 -0.108000003       2.40889020E-09
 -0.107000001       3.31746364E-09
 -0.105999999       3.64757935E-09
 -0.104999997       3.24960570E-09
 -0.104000002       2.19924590E-09
 -0.103000000       7.73108189E-10
 -0.101999998      -6.46820597E-10
 -0.101000004      -1.70415249E-09
 -0.100000001      -2.18492135E-09
  -9.89999995E-02  -2.07633044E-09
  -9.79999974E-02  -1.54734836E-09
  -9.70000029E-02  -8.63909888E-10
  -9.60000008E-02  -2.79823248E-10
  -9.49999988E-02   4.41845067E-11
  -9.39999968E-02   5.25887701E-11
  -9.30000022E-02  -2.70967720E-10
  -9.20000002E-02  -1.01854647E-09
  -9.09999982E-02  -2.46317344E-09
  -9.00000036E-02  -5.09085929E-09
  -8.90000015E-02  -9.52003187E-09
  -8.79999995E-02  -1.63160436E-08
  -8.69999975E-02  -2.57604817E-08
  -8.60000029E-02  -3.76698992E-08
  -8.50000009E-02  -5.13581462E-08
  -8.39999989E-02  -6.57951560E-08
  -8.29999968E-02  -7.99437032E-08
  -8.20000023E-02  -9.31791462E-08
  -8.10000002E-02  -1.05646436E-07
  -7.99999982E-02  -1.18408245E-07
  -7.90000036E-02  -1.33295430E-07
  -7.80000016E-02  -1.52472353E-07
  -7.69999996E-02  -1.77840292E-07
  -7.59999976E-02  -2.10480707E-07
  -7.50000030E-02  -2.50351775E-07
  -7.40000010E-02  -2.96383206E-07
  -7.29999989E-02  -3.46981437E-07
  -7.19999969E-02  -4.00805305E-07
  -7.10000023E-02  -4.57553057E-07
  -7.00000003E-02  -5.18467459E-07
  -6.89999983E-02  -5.86338274E-07
  -6.80000037E-02  -6.64943514E-07
  -6.70000017E-02  -7.58074862E-07
  -6.59999996E-02  -8.68464326E-07
  -6.49999976E-02  -9.97002303E-07
  -6.40000030E-02  -1.14257602E-06
  -6.30000010E-02  -1.30266676E-06
  -6.19999990E-02  -1.47458638E-06
  -6.10000007E-02  -1.65698975E-06
  -5.99999987E-02  -1.85116517E-06
  -5.90000004E-02  -2.06163259E-06
  -5.79999983E-02  -2.29577813E-06
  -5.70000000E-02  -2.56256453E-06
  -5.60000017E-02  -2.87068110E-06
  -5.49999997E-02  -3.22672099E-06
  -5.40000014E-02  -3.63400954E-06
  -5.29999994E-02  -4.09253062E-06
  -5.20000011E-02  -4.60005867E-06
  -5.09999990E-02  -5.15420015E-06
  -5.00000007E-02  -5.75472950E-06
  -4.89999987E-02  -6.40546114E-06
  -4.80000004E-02  -7.11503071E-06
  -4.69999984E-02  -7.89627757E-06
  -4.60000001E-02  -8.76439481E-06
  -4.50000018E-02  -9.73441183E-06
  -4.39999998E-02  -1.08188406E-05
  -4.30000015E-02  -1.20262912E-05
  -4.19999994E-02  -1.33615549E-05
  -4.10000011E-02  -1.48272038E-05
  -3.99999991E-02  -1.64262474E-05
  -3.90000008E-02  -1.81650248E-05
  -3.79999988E-02  -2.00554241E-05
  -3.70000005E-02  -2.21157170E-05
  -3.59999985E-02  -2.43697286E-05
  -3.50000001E-02  -2.68446402E-05
  -3.40000018E-02  -2.95681166E-05
  -3.29999998E-02  -3.25657129E-05
  -3.20000015E-02  -3.58594261E-05
  -3.09999995E-02  -3.94678318E-05
  -2.99999993E-02  -4.34078029E-05
  -2.89999992E-02  -4.76972091E-05
  -2.80000009E-02  -5.23577692E-05
  -2.70000007E-02  -5.74170881E-05
  -2.60000005E-02  -6.29093265E-05
  -2.50000004E-02  -6.88742366E-05
  -2.40000002E-02  -7.53550630E-05
  -2.30000000E-02  -8.23959126E-05
  -2.19999999E-02  -9.00395753E-05
  -2.09999997E-02  -9.83264981E-05
  -1.99999996E-02  -1.07295193E-04
  -1.89999994E-02  -1.16983938E-04
  -1.79999992E-02  -1.27433246E-04
  -1.70000009E-02  -1.38688134E-04
  -1.60000008E-02  -1.50799635E-04
  -1.49999997E-02  -1.63825069E-04
  -1.40000004E-02  -1.77826922E-04
  -1.30000003E-02  -1.92871084E-04
  -1.20000001E-02  -2.09024773E-04
  -1.09999999E-02  -2.26355085E-04
  -9.99999978E-03  -2.44928495E-04
  -8.99999961E-03  -2.64811388E-04
  -8.00000038E-03  -2.86071590E-04
  -7.00000022E-03  -3.08779941E-04
  -6.00000005E-03  -3.33011558E-04
  -4.99999989E-03  -3.58846446E-04
  -4.00000019E-03  -3.86368891E-04
  -3.00000003E-03  -4.15666233E-04
  -2.00000009E-03  -4.46827122E-04
  -1.00000005E-03  -4.79940092E-04
   0.00000000      -5.15092746E-04
   1.00000005E-03  -5.52371668E-04
   2.00000009E-03  -5.91863180E-04
   3.00000003E-03  -6.33654476E-04
   4.00000019E-03  -6.77834207E-04
   4.99999989E-03  -7.24493118E-04
   6.00000005E-03  -7.73723295E-04
   7.00000022E-03  -8.25617055E-04
   8.00000038E-03  -8.80265259E-04
   8.99999961E-03  -9.37755569E-04
   9.99999978E-03  -9.98171163E-04
   1.09999999E-02  -1.06159027E-03
   1.20000001E-02  -1.12808624E-03
   1.30000003E-02  -1.19772868E-03
   1.40000004E-02  -1.27058348E-03
   1.49999997E-02  -1.34671410E-03
   1.60000008E-02  -1.42618082E-03
   1.70000009E-02  -1.50903955E-03
   1.79999992E-02  -1.59534067E-03
   1.89999994E-02  -1.68512657E-03
   1.99999996E-02  -1.77842949E-03
   2.09999997E-02  -1.87527004E-03
   2.19999999E-02  -1.97565602E-03
   2.30000000E-02  -2.07958301E-03
   2.40000002E-02  -2.18703342E-03
   2.50000004E-02  -2.29797815E-03
   2.60000005E-02  -2.41237762E-03
   2.70000007E-02  -2.53018062E-03
   2.80000009E-02  -2.65132450E-03
   2.89999992E-02  -2.77573359E-03
   2.99999993E-02  -2.90331733E-03
   3.09999995E-02  -3.03396722E-03
   3.20000015E-02  -3.16755543E-03
   3.29999998E-02  -3.30393342E-03
   3.40000018E-02  -3.44293052E-03
   3.50000001E-02  -3.58435558E-03
   3.59999985E-02  -3.72799765E-03
   3.70000005E-02  -3.87362670E-03
   3.79999988E-02  -4.02099639E-03
   3.90000008E-02  -4.16984316E-03
   3.99999991E-02  -4.31988761E-03
   4.10000011E-02  -4.47083078E-03
   4.19999994E-02  -4.62235417E-03
   4.30000015E-02  -4.77411598E-03
   4.39999998E-02  -4.92575020E-03
   4.50000018E-02  -5.07686567E-03
   4.60000001E-02  -5.22704609E-03
   4.69999984E-02  -5.37585327E-03
   4.80000004E-02  -5.52282995E-03
   4.89999987E-02  -5.66750253E-03
   5.00000007E-02  -5.80938486E-03
   5.09999990E-02  -5.94798056E-03
   5.20000011E-02  -6.08278112E-03
   5.29999994E-02  -6.21326640E-03
   5.40000014E-02  -6.33890228E-03
   5.49999997E-02  -6.45913929E-03
   5.60000017E-02  -6.57341117E-03
   5.70000000E-02  -6.68113725E-03
   5.79999983E-02  -6.78172614E-03
   5.90000004E-02  -6.87457947E-03
   5.99999987E-02  -6.95909886E-03
   6.10000007E-02  -7.03468872E-03
   6.19999990E-02  -7.10076233E-03
   6.30000010E-02  -7.15674181E-03
   6.40000030E-02  -7.20205763E-03
   6.49999976E-02  -7.23614963E-03
   6.59999996E-02  -7.25846225E-03
   6.70000017E-02  -7.26844696E-03
   6.80000037E-02  -7.26556499E-03
   6.89999983E-02  -7.24928826E-03
   7.00000003E-02  -7.21910782E-03
   7.10000023E-02  -7.17453938E-03
   7.19999969E-02  -7.11513078E-03
   7.29999989E-02  -7.04046432E-03
   7.40000010E-02  -6.95015909E-03
   7.50000030E-02  -6.84387377E-03
   7.59999976E-02  -6.72130240E-03
   7.69999996E-02  -6.58217538E-03
   7.80000016E-02  -6.42625708E-03
   7.90000036E-02  -6.25334587E-03
   7.99999982E-02  -6.06327970E-03
   8.10000002E-02  -5.85593842E-03
   8.20000023E-02  -5.63124940E-03
   8.29999968E-02  -5.38919354E-03
   8.39999989E-02  -5.12980530E-03
   8.50000009E-02  -4.85317828E-03
   8.60000029E-02  -4.55946242E-03
   8.69999975E-02  -4.24886169E-03
   8.79999995E-02  -3.92163219E-03
   8.90000015E-02  -3.57808056E-03
   9.00000036E-02  -3.21856234E-03
   9.09999982E-02  -2.84348172E-03
   9.20000002E-02  -2.45329435E-03
   9.30000022E-02  -2.04850757E-03
   9.39999968E-02  -1.62968354E-03
   9.49999988E-02  -1.19743811E-03
   9.60000008E-02  -7.52440188E-04
   9.70000029E-02  -2.95408652E-04
   9.79999974E-02   1.72890970E-04
   9.89999995E-02   6.51651120E-04
  0.100000001       1.14002626E-03
  0.101000004       1.63713517E-03
  0.101999998       2.14206404E-03
  0.103000000       2.65386677E-03
  0.104000002       3.17156711E-03
  0.104999997       3.69415968E-03
  0.105999999       4.22061328E-03
  0.107000001       4.74987365E-03
  0.108000003       5.28087001E-03
  0.108999997       5.81251970E-03
  0.109999999       6.34373352E-03
  0.111000001       6.87342323E-03
  0.112000003       7.40050199E-03
  0.112999998       7.92389084E-03
  0.114000000       8.44251644E-03
  0.115000002       8.95531662E-03
  0.115999997       9.46124177E-03
  0.116999999       9.95925535E-03
  0.118000001       1.04483422E-02
  0.119000003       1.09275123E-02
  0.119999997       1.13958064E-02
  0.120999999       1.18523054E-02
  0.122000001       1.22961281E-02
  0.123000003       1.27264410E-02
  0.123999998       1.31424563E-02
  0.125000000       1.35434354E-02
  0.126000002       1.39286825E-02
  0.127000004       1.42975496E-02
  0.128000006       1.46494331E-02
  0.128999993       1.49837798E-02
  0.129999995       1.53000867E-02
  0.130999997       1.55979088E-02
  0.131999999       1.58768632E-02
  0.133000001       1.61366276E-02
  0.134000003       1.63769498E-02
  0.135000005       1.65976379E-02
  0.136000007       1.67985670E-02
  0.136999995       1.69796664E-02
  0.137999997       1.71409212E-02
  0.138999999       1.72823649E-02
  0.140000001       1.74040794E-02
  0.141000003       1.75061990E-02
  0.142000005       1.75889060E-02
  0.143000007       1.76524334E-02
  0.143999994       1.76970772E-02
  0.144999996       1.77231841E-02
  0.145999998       1.77311543E-02
  0.147000000       1.77214406E-02
  0.148000002       1.76945329E-02
  0.149000004       1.76509544E-02
  0.150000006       1.75912604E-02
  0.150999993       1.75160263E-02
  0.151999995       1.74258482E-02
  0.152999997       1.73213426E-02
  0.153999999       1.72031559E-02
  0.155000001       1.70719493E-02
  0.156000003       1.69284157E-02
  0.157000005       1.67732649E-02
  0.158000007       1.66072249E-02
  0.158999994       1.64310336E-02
  0.159999996       1.62454322E-02
  0.160999998       1.60511620E-02
  0.162000000       1.58489533E-02
  0.163000003       1.56395249E-02
  0.164000005       1.54235922E-02
  0.165000007       1.52018592E-02
  0.165999994       1.49750225E-02
  0.166999996       1.47437714E-02
  0.167999998       1.45087857E-02
  0.169000000       1.42707331E-02
  0.170000002       1.40302600E-02
  0.171000004       1.37879932E-02
  0.172000006       1.35445315E-02
  0.172999993       1.33004477E-02
  0.173999995       1.30562894E-02
  0.174999997       1.28125781E-02
  0.175999999       1.25698103E-02
  0.177000001       1.23284617E-02
  0.178000003       1.20889824E-02
  0.179000005       1.18517997E-02
  0.180000007       1.16173113E-02
  0.180999994       1.13858869E-02
  0.181999996       1.11578647E-02
  0.182999998       1.09335519E-02
  0.184000000       1.07132271E-02
  0.185000002       1.04971398E-02
  0.186000004       1.02855191E-02
  0.187000006       1.00785727E-02
  0.187999994       9.87648685E-03
  0.188999996       9.67942644E-03
  0.189999998       9.48753022E-03
  0.191000000       9.30091273E-03
  0.192000002       9.11965966E-03
  0.193000004       8.94383062E-03
  0.194000006       8.77346098E-03
  0.194999993       8.60856473E-03
  0.195999995       8.44914466E-03
  0.196999997       8.29519145E-03
  0.197999999       8.14668834E-03
  0.199000001       8.00361112E-03
  0.200000003       7.86592253E-03
  0.201000005       7.73357321E-03
  0.202000007       7.60649471E-03
  0.202999994       7.48459995E-03
  0.203999996       7.36778462E-03
  0.204999998       7.25593045E-03
  0.206000000       7.14890938E-03
  0.207000002       7.04659289E-03
  0.208000004       6.94885431E-03
  0.209000006       6.85557164E-03
  0.209999993       6.76662708E-03
  0.210999995       6.68190420E-03
  0.211999997       6.60128193E-03
  0.213000000       6.52463129E-03
  0.214000002       6.45181304E-03
  0.215000004       6.38267817E-03
  0.216000006       6.31706975E-03
  0.216999993       6.25483040E-03
  0.217999995       6.19580690E-03
  0.218999997       6.13985443E-03
  0.219999999       6.08684169E-03
  0.221000001       6.03664713E-03
  0.222000003       5.98915713E-03
  0.223000005       5.94426086E-03
  0.224000007       5.90184610E-03
  0.224999994       5.86179504E-03
  0.225999996       5.82398288E-03
  0.226999998       5.78828203E-03
  0.228000000       5.75456489E-03
  0.229000002       5.72270853E-03
  0.230000004       5.69260120E-03
  0.231000006       5.66414231E-03
  0.231999993       5.63724386E-03
  0.232999995       5.61182806E-03
  0.233999997       5.58782369E-03
  0.234999999       5.56515949E-03
  0.236000001       5.54376375E-03
  0.237000003       5.52356010E-03
  0.238000005       5.50446939E-03
  0.238999993       5.48641104E-03
  0.239999995       5.46930777E-03
  0.240999997       5.45308832E-03
  0.241999999       5.43769076E-03
  0.243000001       5.42306155E-03
  0.244000003       5.40915504E-03
  0.245000005       5.39593026E-03
  0.246000007       5.38334996E-03
  0.246999994       5.37137734E-03
  0.247999996       5.35997283E-03
  0.248999998       5.34909638E-03
  0.250000000       5.33870561E-03
  0.250999987       5.32876095E-03
  0.252000004       5.31922374E-03
  0.252999991       5.31005999E-03
  0.254000008       5.30124083E-03
  0.254999995       5.29274112E-03
  0.256000012       5.28453849E-03
  0.256999999       5.27661154E-03
  0.257999986       5.26894070E-03
  0.259000003       5.26150549E-03
  0.259999990       5.25428634E-03
  0.261000007       5.24726370E-03
  0.261999995       5.24042081E-03
  0.263000011       5.23374230E-03
  0.263999999       5.22721559E-03
  0.264999986       5.22082951E-03
  0.266000003       5.21457242E-03
  0.266999990       5.20843407E-03
  0.268000007       5.20240236E-03
  0.268999994       5.19646425E-03
  0.270000011       5.19060576E-03
  0.270999998       5.18481433E-03
  0.272000015       5.17907972E-03
  0.273000002       5.17339492E-03
  0.273999989       5.16775763E-03
  0.275000006       5.16216923E-03
  0.275999993       5.15663205E-03
  0.277000010       5.15114889E-03
  0.277999997       5.14571974E-03
  0.279000014       5.14034089E-03
  0.280000001       5.13500534E-03
  0.280999988       5.12970239E-03
  0.282000005       5.12442319E-03
  0.282999992       5.11915935E-03
  0.284000009       5.11390949E-03
  0.284999996       5.10867732E-03
  0.286000013       5.10347309E-03
  0.287000000       5.09831030E-03
  0.287999988       5.09320246E-03
  0.289000005       5.08815935E-03
  0.289999992       5.08318422E-03
  0.291000009       5.07827476E-03
  0.291999996       5.07342117E-03
  0.293000013       5.06861182E-03
  0.294000000       5.06383693E-03
  0.294999987       5.05909184E-03
  0.296000004       5.05438028E-03
  0.296999991       5.04971482E-03
  0.298000008       5.04511362E-03
  0.298999995       5.04059624E-03
  0.300000012       5.03618084E-03
  0.300999999       5.03187813E-03
  0.301999986       5.02768857E-03
  0.303000003       5.02360659E-03
  0.303999990       5.01962053E-03
  0.305000007       5.01571782E-03
  0.305999994       5.01188962E-03
  0.307000011       5.00813499E-03
  0.307999998       5.00446046E-03
  0.308999985       5.00087999E-03
  0.310000002       4.99740895E-03
  0.310999990       4.99406271E-03
  0.312000006       4.99084918E-03
  0.312999994       4.98776743E-03
  0.314000010       4.98481002E-03
  0.314999998       4.98196157E-03
  0.316000015       4.97920578E-03
  0.317000002       4.97652916E-03
  0.317999989       4.97392425E-03
  0.319000006       4.97139199E-03
  0.319999993       4.96893981E-03
  0.321000010       4.96657798E-03
  0.321999997       4.96431673E-03
  0.323000014       4.96216072E-03
  0.324000001       4.96010808E-03
  0.324999988       4.95814858E-03
  0.326000005       4.95626731E-03
  0.326999992       4.95444611E-03
  0.328000009       4.95267054E-03
  0.328999996       4.95093036E-03
  0.330000013       4.94922278E-03
  0.331000000       4.94754920E-03
  0.331999987       4.94591566E-03
  0.333000004       4.94432636E-03
  0.333999991       4.94278176E-03
  0.335000008       4.94127488E-03
  0.335999995       4.93979547E-03
  0.337000012       4.93832864E-03
  0.338000000       4.93685994E-03
  0.338999987       4.93537774E-03
  0.340000004       4.93387785E-03
  0.340999991       4.93236259E-03
  0.342000008       4.93083848E-03
  0.342999995       4.92931437E-03
  0.344000012       4.92779724E-03
  0.344999999       4.92628943E-03
  0.345999986       4.92478674E-03
  0.347000003       4.92328033E-03
  0.347999990       4.92175808E-03
  0.349000007       4.92020976E-03
  0.349999994       4.91862791E-03
  0.351000011       4.91701299E-03
  0.351999998       4.91537154E-03
  0.352999985       4.91371425E-03
  0.354000002       4.91205323E-03
  0.354999989       4.91039688E-03
  0.356000006       4.90874890E-03
  0.356999993       4.90710419E-03
  0.358000010       4.90545295E-03
  0.358999997       4.90378309E-03
  0.360000014       4.90208296E-03
  0.361000001       4.90034744E-03
  0.361999989       4.89857886E-03
  0.363000005       4.89678839E-03
  0.363999993       4.89499420E-03
  0.365000010       4.89321724E-03
  0.365999997       4.89147427E-03
  0.367000014       4.88977507E-03
  0.368000001       4.88812104E-03
  0.368999988       4.88650333E-03
  0.370000005       4.88490704E-03
  0.370999992       4.88331635E-03
  0.372000009       4.88171820E-03
  0.372999996       4.88010887E-03
  0.374000013       4.87849256E-03
  0.375000000       4.87688370E-03
  0.375999987       4.87529999E-03
  0.377000004       4.87375911E-03
  0.377999991       4.87227226E-03
  0.379000008       4.87084221E-03
  0.379999995       4.86946153E-03
  0.381000012       4.86811390E-03
  0.381999999       4.86678118E-03
  0.382999986       4.86544659E-03
  0.384000003       4.86410083E-03
  0.384999990       4.86274436E-03
  0.386000007       4.86138789E-03
  0.386999995       4.86004911E-03
  0.388000011       4.85874759E-03
  0.388999999       4.85749915E-03
  0.389999986       4.85631125E-03
  0.391000003       4.85518249E-03
  0.391999990       4.85409983E-03
  0.393000007       4.85304603E-03
  0.393999994       4.85200156E-03
  0.395000011       4.85095242E-03
  0.395999998       4.84989118E-03
  0.397000015       4.84882016E-03
  0.398000002       4.84774821E-03
  0.398999989       4.84668743E-03
  0.400000006       4.84564994E-03
  0.400999993       4.84464364E-03
  0.402000010       4.84366948E-03
  0.402999997       4.84272139E-03
  0.404000014       4.84178960E-03
  0.405000001       4.84086340E-03
  0.405999988       4.83993534E-03
  0.407000005       4.83900215E-03
  0.407999992       4.83806711E-03
  0.409000009       4.83713904E-03
  0.409999996       4.83622588E-03
  0.411000013       4.83533414E-03
  0.412000000       4.83446708E-03
  0.412999988       4.83362190E-03
  0.414000005       4.83279163E-03
  0.414999992       4.83196881E-03
  0.416000009       4.83114691E-03
  0.416999996       4.83032409E-03
  0.418000013       4.82950406E-03
  0.419000000       4.82869381E-03
  0.419999987       4.82790265E-03
  0.421000004       4.82713850E-03
  0.421999991       4.82640462E-03
  0.423000008       4.82569775E-03
  0.423999995       4.82500810E-03
  0.425000012       4.82432358E-03
  0.425999999       4.82363254E-03
  0.426999986       4.82292706E-03
  0.428000003       4.82220761E-03
  0.428999990       4.82148118E-03
  0.430000007       4.82076127E-03
  0.430999994       4.82006371E-03
  0.432000011       4.81940061E-03
  0.432999998       4.81877849E-03
  0.433999985       4.81819594E-03
  0.435000002       4.81764227E-03
  0.435999990       4.81710304E-03
  0.437000006       4.81656287E-03
  0.437999994       4.81601013E-03
  0.439000010       4.81544109E-03
  0.439999998       4.81486134E-03
  0.441000015       4.81428346E-03
  0.442000002       4.81372187E-03
  0.442999989       4.81319102E-03
  0.444000006       4.81269835E-03
  0.444999993       4.81224293E-03
  0.446000010       4.81181545E-03
  0.446999997       4.81140148E-03
  0.448000014       4.81098378E-03
  0.449000001       4.81054932E-03
  0.449999988       4.81009251E-03
  0.451000005       4.80961753E-03
  0.451999992       4.80913650E-03
  0.453000009       4.80866618E-03
  0.453999996       4.80822287E-03
  0.455000013       4.80781915E-03
  0.456000000       4.80745779E-03
  0.456999987       4.80713276E-03
  0.458000004       4.80683055E-03
  0.458999991       4.80653392E-03
  0.460000008       4.80622565E-03
  0.460999995       4.80589503E-03
  0.462000012       4.80553927E-03
  0.463000000       4.80516534E-03
  0.463999987       4.80478583E-03
  0.465000004       4.80441796E-03
  0.465999991       4.80407476E-03
  0.467000008       4.80376510E-03
  0.467999995       4.80348896E-03
  0.469000012       4.80323797E-03
  0.469999999       4.80299816E-03
  0.470999986       4.80275508E-03
  0.472000003       4.80249478E-03
  0.472999990       4.80221026E-03
  0.474000007       4.80190292E-03
  0.474999994       4.80158068E-03
  0.476000011       4.80125519E-03
  0.476999998       4.80094086E-03
  0.477999985       4.80064796E-03
  0.479000002       4.80038207E-03
  0.479999989       4.80014132E-03
  0.481000006       4.79991734E-03
  0.481999993       4.79969941E-03
  0.483000010       4.79947589E-03
  0.483999997       4.79923841E-03
  0.485000014       4.79898322E-03
  0.486000001       4.79871267E-03
  0.486999989       4.79843328E-03
  0.488000005       4.79815388E-03
  0.488999993       4.79788193E-03
  0.490000010       4.79762210E-03
  0.490999997       4.79737576E-03
  0.492000014       4.79713967E-03
  0.493000001       4.79690731E-03
  0.493999988       4.79667215E-03
  0.495000005       4.79642814E-03
  0.495999992       4.79617249E-03
  0.497000009       4.79590567E-03
  0.497999996       4.79562907E-03
  0.499000013       4.79534781E-03
  0.500000000       4.79506562E-03
  0.500999987       4.79478389E-03
  0.501999974       4.79450263E-03
  0.503000021       4.79422044E-03
  0.504000008       4.79393499E-03
  0.504999995       4.79364535E-03
  0.505999982       4.79335198E-03
  0.507000029       4.79305675E-03
  0.508000016       4.79276385E-03
  0.509000003       4.79247654E-03
  0.509999990       4.79219807E-03
  0.510999978       4.79192799E-03
  0.512000024       4.79166349E-03
  0.513000011       4.79140086E-03
  0.513999999       4.79113590E-03
  0.514999986       4.79086535E-03
  0.515999973       4.79058828E-03
  0.517000020       4.79030749E-03
  0.518000007       4.79002856E-03
  0.518999994       4.78975801E-03
  0.519999981       4.78950189E-03
  0.521000028       4.78926348E-03
  0.522000015       4.78904229E-03
  0.523000002       4.78883414E-03
  0.523999989       4.78863157E-03
  0.524999976       4.78842808E-03
  0.526000023       4.78821900E-03
  0.527000010       4.78800246E-03
  0.527999997       4.78778174E-03
  0.528999984       4.78756335E-03
  0.529999971       4.78735520E-03
  0.531000018       4.78716567E-03
  0.532000005       4.78699943E-03
  0.532999992       4.78685740E-03
  0.533999979       4.78673680E-03
  0.535000026       4.78663063E-03
  0.536000013       4.78653144E-03
  0.537000000       4.78643319E-03
  0.537999988       4.78633214E-03
  0.538999975       4.78622830E-03
  0.540000021       4.78612538E-03
  0.541000009       4.78602899E-03
  0.541999996       4.78594331E-03
  0.542999983       4.78587253E-03
  0.544000030       4.78581758E-03
  0.545000017       4.78577660E-03
  0.546000004       4.78574540E-03
  0.546999991       4.78571979E-03
  0.547999978       4.78569744E-03
  0.549000025       4.78567602E-03
  0.550000012       4.78565739E-03
  0.550999999       4.78564436E-03
  0.551999986       4.78564017E-03
  0.552999973       4.78564901E-03
  0.554000020       4.78567230E-03
  0.555000007       4.78571048E-03
  0.555999994       4.78576217E-03
  0.556999981       4.78582410E-03
  0.558000028       4.78589395E-03
  0.559000015       4.78596799E-03
  0.560000002       4.78604482E-03
  0.560999990       4.78612306E-03
  0.561999977       4.78620315E-03
  0.563000023       4.78628511E-03
  0.564000010       4.78636939E-03
  0.564999998       4.78645554E-03
  0.565999985       4.78654355E-03
  0.566999972       4.78663202E-03
  0.568000019       4.78672050E-03
  0.569000006       4.78680898E-03
  0.569999993       4.78689745E-03
  0.570999980       4.78698779E-03
  0.572000027       4.78708092E-03
  0.573000014       4.78717731E-03
  0.574000001       4.78727743E-03
  0.574999988       4.78737988E-03
  0.575999975       4.78748325E-03
  0.577000022       4.78758570E-03
  0.578000009       4.78768628E-03
  0.578999996       4.78778407E-03
  0.579999983       4.78787860E-03
  0.580999970       4.78797080E-03
  0.582000017       4.78806160E-03
  0.583000004       4.78815148E-03
  0.583999991       4.78824135E-03
  0.584999979       4.78833029E-03
  0.586000025       4.78841644E-03
  0.587000012       4.78849746E-03
  0.588000000       4.78857104E-03
  0.588999987       4.78863623E-03
  0.589999974       4.78869211E-03
  0.591000021       4.78873961E-03
  0.592000008       4.78878198E-03
  0.592999995       4.78882156E-03
  0.593999982       4.78886208E-03
  0.595000029       4.78890538E-03
  0.596000016       4.78895381E-03
  0.597000003       4.78900503E-03
  0.597999990       4.78905719E-03
  0.598999977       4.78910562E-03
  0.600000024       4.78914659E-03
  0.601000011       4.78917640E-03
  0.601999998       4.78919363E-03
  0.602999985       4.78919921E-03
  0.603999972       4.78919642E-03
  0.605000019       4.78918990E-03
  0.606000006       4.78918385E-03
  0.606999993       4.78918292E-03
  0.607999980       4.78918757E-03
  0.609000027       4.78919689E-03
  0.610000014       4.78920667E-03
  0.611000001       4.78921086E-03
  0.611999989       4.78920341E-03
  0.612999976       4.78917966E-03
  0.614000022       4.78913728E-03
  0.615000010       4.78907814E-03
  0.615999997       4.78900690E-03
  0.616999984       4.78893006E-03
  0.617999971       4.78885509E-03
  0.619000018       4.78878617E-03
  0.620000005       4.78872564E-03
  0.620999992       4.78867209E-03
  0.621999979       4.78862040E-03
  0.623000026       4.78856452E-03
  0.624000013       4.78849839E-03
  0.625000000       4.78841737E-03
  0.625999987       4.78832191E-03
  0.626999974       4.78821434E-03
  0.628000021       4.78810025E-03
  0.629000008       4.78798617E-03
  0.629999995       4.78787674E-03
  0.630999982       4.78777476E-03
  0.632000029       4.78767930E-03
  0.633000016       4.78758663E-03
  0.634000003       4.78749117E-03
  0.634999990       4.78738733E-03
  0.635999978       4.78727184E-03
  0.637000024       4.78714285E-03
  0.638000011       4.78700176E-03
  0.638999999       4.78685135E-03
  0.639999986       4.78669535E-03
  0.640999973       4.78653610E-03
  0.642000020       4.78637498E-03
  0.643000007       4.78621293E-03
  0.643999994       4.78604902E-03
  0.644999981       4.78588184E-03
  0.646000028       4.78571281E-03
  0.647000015       4.78554377E-03
  0.648000002       4.78537707E-03
  0.648999989       4.78521502E-03
  0.649999976       4.78505855E-03
  0.651000023       4.78490675E-03
  0.652000010       4.78475541E-03
  0.652999997       4.78459895E-03
  0.653999984       4.78443224E-03
  0.654999971       4.78425156E-03
  0.656000018       4.78405738E-03
  0.657000005       4.78385389E-03
  0.657999992       4.78364900E-03
  0.658999979       4.78345156E-03
  0.660000026       4.78326902E-03
  0.661000013       4.78310604E-03
  0.662000000       4.78296261E-03
  0.662999988       4.78283269E-03
  0.663999975       4.78270743E-03
  0.665000021       4.78257844E-03
  0.666000009       4.78243921E-03
  0.666999996       4.78228880E-03
  0.667999983       4.78213094E-03
  0.669000030       4.78197495E-03
  0.670000017       4.78183152E-03
  0.671000004       4.78170998E-03
  0.671999991       4.78161685E-03
  0.672999978       4.78155166E-03
  0.674000025       4.78150789E-03
  0.675000012       4.78147436E-03
  0.675999999       4.78143943E-03
  0.676999986       4.78139380E-03
  0.677999973       4.78133326E-03
  0.679000020       4.78125969E-03
  0.680000007       4.78118239E-03
  0.680999994       4.78111254E-03
  0.681999981       4.78106271E-03
  0.683000028       4.78104176E-03
  0.684000015       4.78105247E-03
  0.685000002       4.78109019E-03
  0.685999990       4.78114560E-03
  0.686999977       4.78120707E-03
  0.688000023       4.78126295E-03
  0.689000010       4.78130532E-03
  0.689999998       4.78133280E-03
  0.690999985       4.78134956E-03
  0.691999972       4.78136539E-03
  0.693000019       4.78139147E-03
  0.694000006       4.78143804E-03
  0.694999993       4.78151161E-03
  0.695999980       4.78161313E-03