 -0.159999996       0.00000000    
 -0.158999994       0.00000000    
 -0.158000007       0.00000000    
 -0.157000005       0.00000000    
 -0.156000003       0.00000000    
 -0.155000001       0.00000000    
 -0.153999999       0.00000000    
 -0.152999997      -7.83341689E-25
 -0.151999995      -8.48716042E-24
 -0.150999993      -4.41315454E-23
 -0.150000006      -1.35187295E-22
 -0.149000004      -2.00437300E-22
 -0.148000002       3.39754718E-22
 -0.147000000       3.34230001E-21
 -0.145999998       1.27760340E-20
 -0.144999996       3.42686840E-20
 -0.143999994       7.08424554E-20
 -0.143000007       1.12381378E-19
 -0.142000005       1.19943813E-19
 -0.141000003       1.46158404E-20
 -0.140000001      -3.08088641E-19
 -0.138999999      -9.12253347E-19
 -0.137999997      -1.69436368E-18
 -0.136999995      -2.23620152E-18
 -0.136000007      -1.75969130E-18
 -0.135000005       6.25410375E-19
 -0.134000003       5.21433565E-18
 -0.133000001       1.05860035E-17
 -0.131999999       1.25499479E-17
 -0.130999997       4.19006892E-18
 -0.129999995      -2.16467078E-17
 -0.128999993      -6.64891284E-17
 -0.128000006      -1.17706570E-16
 -0.127000004      -1.40850104E-16
 -0.126000002      -7.96232279E-17
 -0.125000000       1.28168301E-16
 -0.123999998       5.13011540E-16
 -0.123000003       1.01786022E-15
 -0.122000001       1.44287944E-15
 -0.120999999       1.42678444E-15
 -0.119999997       5.10692363E-16
 -0.119000003      -1.67920968E-15
 -0.118000001      -5.13311453E-15
 -0.116999999      -9.11552124E-15
 -0.115999997      -1.19353024E-14
 -0.115000002      -1.10447760E-14
 -0.114000000      -3.67422225E-15
 -0.112999998       1.19192511E-14
 -0.112000003       3.47688560E-14
 -0.111000001       5.96089679E-14
 -0.109999999       7.62261551E-14
 -0.108999997       7.07115640E-14
 -0.108000003       2.93023222E-14
 -0.107000001      -5.52697739E-14
 -0.105999999      -1.76206218E-13
 -0.104999997      -3.06465113E-13
 -0.104000002      -3.97537255E-13
 -0.103000000      -3.86637310E-13
 -0.101999998      -2.14121892E-13
 -0.101000004       1.50369151E-13
 -0.100000001       6.78986923E-13
  -9.89999995E-02   1.26416260E-12
  -9.79999974E-02   1.71694896E-12
  -9.70000029E-02   1.79598502E-12
  -9.60000008E-02   1.27111852E-12
  -9.49999988E-02   1.42528794E-14
  -9.39999968E-02  -1.90382302E-12
  -9.30000022E-02  -4.14372486E-12
  -9.20000002E-02  -6.09251972E-12
  -9.09999982E-02  -6.95363342E-12
  -9.00000036E-02  -5.94005357E-12
  -8.90000015E-02  -2.54582271E-12
  -8.79999995E-02   3.16671364E-12
  -8.69999975E-02   1.03561144E-11
  -8.60000029E-02   1.73680913E-11
  -8.50000009E-02   2.19559492E-11
  -8.39999989E-02   2.17742491E-11
  -8.29999968E-02   1.50803432E-11
  -8.20000023E-02   1.48799170E-12
  -8.10000002E-02  -1.74506746E-11
  -7.99999982E-02  -3.80740231E-11
  -7.90000036E-02  -5.50322149E-11
  -7.80000016E-02  -6.23491467E-11
  -7.69999996E-02  -5.49864633E-11
  -7.59999976E-02  -3.05763956E-11
  -7.50000030E-02   9.15191013E-12
  -7.40000010E-02   5.77587457E-11
  -7.29999989E-02   1.04680847E-10
  -7.19999969E-02   1.37141409E-10
  -7.10000023E-02   1.43140277E-10
  -7.00000003E-02   1.14907361E-10
  -6.89999983E-02   5.19325555E-11
  -6.80000037E-02  -3.73760571E-11
  -6.70000017E-02  -1.36146650E-10
  -6.59999996E-02  -2.21885829E-10
  -6.49999976E-02  -2.71351303E-10
  -6.40000030E-02  -2.66457523E-10
  -6.30000010E-02  -1.99759445E-10
  -6.19999990E-02  -7.79477455E-11
  -6.10000007E-02   7.78874673E-11
  -5.99999987E-02   2.35740233E-10
  -5.90000004E-02   3.59459906E-10
  -5.79999983E-02   4.17378215E-10
  -5.70000000E-02   3.90675409E-10
  -5.60000017E-02   2.79207685E-10
  -5.49999997E-02   1.02984177E-10
  -5.40000014E-02  -1.01485272E-10
  -5.29999994E-02  -2.89398117E-10
  -5.20000011E-02  -4.18535651E-10
  -5.09999990E-02  -4.60031624E-10
  -5.00000007E-02  -4.06089884E-10
  -4.89999987E-02  -2.72369516E-10
  -4.80000004E-02  -9.41190251E-11
  -4.69999984E-02   8.31403141E-11
  -4.60000001E-02   2.15987242E-10
  -4.50000018E-02   2.75138357E-10
  -4.39999998E-02   2.53692539E-10
  -4.30000015E-02   1.69060696E-10
  -4.19999994E-02   5.77816510E-11
  -4.10000011E-02  -3.55312689E-11
  -3.99999991E-02  -7.20897161E-11
  -3.90000008E-02  -3.16762623E-11
  -3.79999988E-02   7.96122682E-11
  -3.70000005E-02   2.29187946E-10
  -3.59999985E-02   3.65835473E-10
  -3.50000001E-02   4.33773628E-10
  -3.40000018E-02   3.89193788E-10
  -3.29999998E-02   2.14676749E-10
  -3.20000015E-02  -7.27105598E-11
  -3.09999995E-02  -4.22234497E-10
  -2.99999993E-02  -7.59455276E-10
  -2.89999992E-02  -1.00306918E-09
  -2.80000009E-02  -1.08446974E-09
  -2.70000007E-02  -9.65072688E-10
  -2.60000005E-02  -6.46990406E-10
  -2.50000004E-02  -1.74345025E-10
  -2.40000002E-02   3.75088544E-10
  -2.30000000E-02   9.05798825E-10
  -2.19999999E-02   1.32409228E-09
  -2.09999997E-02   1.55663504E-09
  -1.99999996E-02   1.56380775E-09
  -1.89999994E-02   1.34520084E-09
  -1.79999992E-02   9.36637878E-10
  -1.70000009E-02   4.00175698E-10
  -1.60000008E-02  -1.89945643E-10
  -1.49999997E-02  -7.61765429E-10
  -1.40000004E-02  -1.25712862E-09
  -1.30000003E-02  -1.63799452E-09
  -1.20000001E-02  -1.88675409E-09
  -1.09999999E-02  -2.00132777E-09
  -9.99999978E-03  -1.98703387E-09
  -8.99999961E-03  -1.84789128E-09
  -8.00000038E-03  -1.58005053E-09
  -7.00000022E-03  -1.16949694E-09
  -6.00000005E-03  -5.95180627E-10
  -4.99999989E-03   1.62502511E-10
  -4.00000019E-03   1.10924059E-09
  -3.00000003E-03   2.22283214E-09
  -2.00000009E-03   3.44097995E-09
  -1.00000005E-03   4.65438310E-09
   0.00000000       5.70824987E-09
   1.00000005E-03   6.41421360E-09
   2.00000009E-03   6.57282273E-09
   3.00000003E-03   6.00455330E-09
   4.00000019E-03   4.58502480E-09
   4.99999989E-03   2.27836749E-09
   6.00000005E-03  -8.38038416E-10
   7.00000022E-03  -4.56354821E-09
   8.00000038E-03  -8.58288196E-09
   8.99999961E-03  -1.24939232E-08
   9.99999978E-03  -1.58512634E-08
   1.09999999E-02  -1.82183939E-08
   1.20000001E-02  -1.92190583E-08
   1.30000003E-02  -1.85778255E-08
   1.40000004E-02  -1.61417759E-08
   1.49999997E-02  -1.18790435E-08
   1.60000008E-02  -5.85511861E-09
   1.70000009E-02   1.80703041E-09
   1.79999992E-02   1.09729452E-08
   1.89999994E-02   2.15370175E-08
   1.99999996E-02   3.34466428E-08
   2.09999997E-02   4.67036863E-08
   2.19999999E-02   6.13427886E-08
   2.30000000E-02   7.73926843E-08
   2.40000002E-02   9.48323802E-08
   2.50000004E-02   1.13556922E-07
   2.60000005E-02   1.33367095E-07
   2.70000007E-02   1.53992545E-07
   2.80000009E-02   1.75150589E-07
   2.89999992E-02   1.96633366E-07
   2.99999993E-02   2.18407635E-07
   3.09999995E-02   2.40705788E-07
   3.20000015E-02   2.64085429E-07
   3.29999998E-02   2.89439981E-07
   3.40000018E-02   3.17951702E-07
   3.50000001E-02   3.50992082E-07
   3.59999985E-02   3.89987264E-07
   3.70000005E-02   4.36277134E-07
   3.79999988E-02   4.91000208E-07
   3.90000008E-02   5.55034546E-07
   3.99999991E-02   6.29012220E-07
   4.10000011E-02   7.13409747E-07
   4.19999994E-02   8.08697337E-07
   4.30000015E-02   9.15514363E-07
   4.39999998E-02   1.03482989E-06
   4.50000018E-02   1.16804847E-06
   4.60000001E-02   1.31703200E-06
   4.69999984E-02   1.48403171E-06
   4.80000004E-02   1.67154417E-06
   4.89999987E-02   1.88212937E-06
   5.00000007E-02   2.11824090E-06
   5.09999990E-02   2.38212033E-06
   5.20000011E-02   2.67579117E-06
   5.29999994E-02   3.00117108E-06
   5.40000014E-02   3.36028461E-06
   5.49999997E-02   3.75553918E-06
   5.60000017E-02   4.19000116E-06
   5.70000000E-02   4.66761730E-06
   5.79999983E-02   5.19332207E-06
   5.90000004E-02   5.77301853E-06
   5.99999987E-02   6.41342695E-06
   6.10000007E-02   7.12185465E-06
   6.19999990E-02   7.90593731E-06
   6.30000010E-02   8.77342245E-06
   6.40000030E-02   9.73205442E-06
   6.49999976E-02   1.07895967E-05
   6.59999996E-02   1.19539827E-05
   6.70000017E-02   1.32335745E-05
   6.80000037E-02   1.46374650E-05
   6.89999983E-02   1.61757689E-05
   7.00000003E-02   1.78598166E-05
   7.10000023E-02   1.97022582E-05
   7.19999969E-02   2.17170091E-05
   7.29999989E-02   2.39191068E-05
   7.40000010E-02   2.63245165E-05
   7.50000030E-02   2.89499276E-05
   7.59999976E-02   3.18126295E-05
   7.69999996E-02   3.49305010E-05
   7.80000016E-02   3.83220977E-05
   7.90000036E-02   4.20069009E-05
   7.99999982E-02   4.60056253E-05
   8.10000002E-02   5.03405354E-05
   8.20000023E-02   5.50357399E-05
   8.29999968E-02   6.01173706E-05
   8.39999989E-02   6.56136544E-05
   8.50000009E-02   7.15548231E-05
   8.60000029E-02   7.79729307E-05
   8.69999975E-02   8.49015923E-05
   8.79999995E-02   9.23757470E-05
   8.90000015E-02   1.00431440E-04
   9.00000036E-02   1.09105786E-04
   9.09999982E-02   1.18436998E-04
   9.20000002E-02   1.28464584E-04
   9.30000022E-02   1.39229654E-04
   9.39999968E-02   1.50775231E-04
   9.49999988E-02   1.63146513E-04
   9.60000008E-02   1.76391084E-04
   9.70000029E-02   1.90558989E-04
   9.79999974E-02   2.05702483E-04
   9.89999995E-02   2.21875904E-04
  0.100000001       2.39135290E-04
  0.101000004       2.57537991E-04
  0.101999998       2.77142506E-04
  0.103000000       2.98008177E-04
  0.104000002       3.20195337E-04
  0.104999997       3.43765336E-04
  0.105999999       3.68780893E-04
  0.107000001       3.95306241E-04
  0.108000003       4.23407357E-04
  0.108999997       4.53151966E-04
  0.109999999       4.84609540E-04
  0.111000001       5.17850858E-04
  0.112000003       5.52947691E-04
  0.112999998       5.89972362E-04
  0.114000000       6.28997164E-04
  0.115000002       6.70093868E-04
  0.115999997       7.13333837E-04
  0.116999999       7.58787559E-04
  0.118000001       8.06524884E-04
  0.119000003       8.56614963E-04
  0.119999997       9.09126364E-04
  0.120999999       9.64127190E-04
  0.122000001       1.02168496E-03
  0.123000003       1.08186621E-03
  0.123999998       1.14473642E-03
  0.125000000       1.21035916E-03
  0.126000002       1.27879588E-03
  0.127000004       1.35010527E-03
  0.128000006       1.42434286E-03
  0.128999993       1.50156044E-03
  0.129999995       1.58180622E-03
  0.130999997       1.66512444E-03
  0.131999999       1.75155571E-03
  0.133000001       1.84113672E-03
  0.134000003       1.93390029E-03
  0.135000005       2.02987553E-03
  0.136000007       2.12908769E-03
  0.136999995       2.23155716E-03
  0.137999997       2.33730022E-03
  0.138999999       2.44632736E-03
  0.140000001       2.55864393E-03
  0.141000003       2.67424993E-03
  0.142000005       2.79313885E-03
  0.143000007       2.91529740E-03
  0.143999994       3.04070720E-03
  0.144999996       3.16934357E-03
  0.145999998       3.30117554E-03
  0.147000000       3.43616703E-03
  0.148000002       3.57427588E-03
  0.149000004       3.71545437E-03
  0.150000006       3.85964965E-03
  0.150999993       4.00680304E-03
  0.151999995       4.15684888E-03
  0.152999997       4.30971710E-03
  0.153999999       4.46533132E-03
  0.155000001       4.62360913E-03
  0.156000003       4.78446204E-03
  0.157000005       4.94779740E-03
  0.158000007       5.11351740E-03
  0.158999994       5.28152008E-03
  0.159999996       5.45170018E-03
  0.160999998       5.62394829E-03
  0.162000000       5.79815218E-03
  0.163000003       5.97419776E-03
  0.164000005       6.15196722E-03
  0.165000007       6.33134041E-03
  0.165999994       6.51219347E-03
  0.166999996       6.69440161E-03
  0.167999998       6.87783631E-03
  0.169000000       7.06236809E-03
  0.170000002       7.24786706E-03
  0.171000004       7.43420236E-03
  0.172000006       7.62124266E-03
  0.172999993       7.80885760E-03
  0.173999995       7.99691770E-03
  0.174999997       8.18529632E-03
  0.175999999       8.37386865E-03
  0.177000001       8.56250990E-03
  0.178000003       8.75109900E-03
  0.179000005       8.93951580E-03
  0.180000007       9.12764296E-03
  0.180999994       9.31536593E-03
  0.181999996       9.50257387E-03
  0.182999998       9.68915783E-03
  0.184000000       9.87501349E-03
  0.185000002       1.00600412E-02
  0.186000004       1.02441451E-02
  0.187000006       1.04272338E-02
  0.187999994       1.06092189E-02
  0.188999996       1.07900202E-02
  0.189999998       1.09695587E-02
  0.191000000       1.11477617E-02
  0.192000002       1.13245593E-02
  0.193000004       1.14998883E-02
  0.194000006       1.16736880E-02
  0.194999993       1.18459035E-02
  0.195999995       1.20164836E-02
  0.196999997       1.21853827E-02
  0.197999999       1.23525569E-02
  0.199000001       1.25179682E-02
  0.200000003       1.26815811E-02
  0.201000005       1.28433630E-02
  0.202000007       1.30032813E-02
  0.202999994       1.31613119E-02
  0.203999996       1.33174295E-02
  0.204999998       1.34716155E-02
  0.206000000       1.36238532E-02
  0.207000002       1.37741277E-02
  0.208000004       1.39224278E-02
  0.209000006       1.40687441E-02
  0.209999993       1.42130693E-02
  0.210999995       1.43553959E-02
  0.211999997       1.44957192E-02
  0.213000000       1.46340327E-02
  0.214000002       1.47703318E-02
  0.215000004       1.49046099E-02
  0.216000006       1.50368623E-02
  0.216999993       1.51670836E-02
  0.217999995       1.52952690E-02
  0.218999997       1.54214120E-02
  0.219999999       1.55455070E-02
  0.221000001       1.56675484E-02
  0.222000003       1.57875288E-02
  0.223000005       1.59054417E-02
  0.224000007       1.60212759E-02
  0.224999994       1.61350202E-02
  0.225999996       1.62466597E-02
  0.226999998       1.63561851E-02
  0.228000000       1.64635777E-02
  0.229000002       1.65688228E-02
  0.230000004       1.66719034E-02
  0.231000006       1.67728011E-02
  0.231999993       1.68714970E-02
  0.232999995       1.69679672E-02
  0.233999997       1.70621909E-02
  0.234999999       1.71541423E-02
  0.236000001       1.72437970E-02
  0.237000003       1.73311271E-02
  0.238000005       1.74161028E-02
  0.238999993       1.74986962E-02
  0.239999995       1.75788756E-02
  0.240999997       1.76566076E-02
  0.241999999       1.77318603E-02
  0.243000001       1.78045984E-02
  0.244000003       1.78747904E-02
  0.245000005       1.79424006E-02
  0.246000007       1.80073921E-02
  0.246999994       1.80697311E-02
  0.247999996       1.81293804E-02
  0.248999998       1.81862991E-02
  0.250000000       1.82404500E-02
  0.250999987       1.82917919E-02
  0.252000004       1.83402859E-02
  0.252999991       1.83858927E-02
  0.254000008       1.84285752E-02
  0.254999995       1.84682962E-02
  0.256000012       1.85050163E-02
  0.256999999       1.85387023E-02
  0.257999986       1.85693130E-02
  0.259000003       1.85968112E-02
  0.259999990       1.86211541E-02
  0.261000007       1.86423007E-02
  0.261999995       1.86602101E-02
  0.263000011       1.86748374E-02
  0.263999999       1.86861455E-02
  0.264999986       1.86940953E-02
  0.266000003       1.86986513E-02
  0.266999990       1.86997820E-02
  0.268000007       1.86974555E-02
  0.268999994       1.86916385E-02
  0.270000011       1.86822973E-02
  0.270999998       1.86694004E-02
  0.272000015       1.86529085E-02
  0.273000002       1.86327845E-02
  0.273999989       1.86089929E-02
  0.275000006       1.85814984E-02
  0.275999993       1.85502712E-02
  0.277000010       1.85152832E-02
  0.277999997       1.84765141E-02
  0.279000014       1.84339453E-02
  0.280000001       1.83875617E-02
  0.280999988       1.83373485E-02
  0.282000005       1.82832908E-02
  0.282999992       1.82253700E-02
  0.284000009       1.81635693E-02
  0.284999996       1.80978756E-02
  0.286000013       1.80282760E-02
  0.287000000       1.79547649E-02
  0.287999988       1.78773459E-02
  0.289000005       1.77960284E-02
  0.289999992       1.77108254E-02
  0.291000009       1.76217556E-02
  0.291999996       1.75288431E-02
  0.293000013       1.74321141E-02
  0.294000000       1.73315909E-02
  0.294999987       1.72273014E-02
  0.296000004       1.71192754E-02
  0.296999991       1.70075521E-02
  0.298000008       1.68921780E-02
  0.298999995       1.67732053E-02
  0.300000012       1.66507009E-02
  0.300999999       1.65247358E-02
  0.301999986       1.63953882E-02
  0.303000003       1.62627380E-02
  0.303999990       1.61268730E-02
  0.305000007       1.59878824E-02
  0.305999994       1.58458557E-02
  0.307000011       1.57008935E-02
  0.307999998       1.55530963E-02
  0.308999985       1.54025778E-02
  0.310000002       1.52494581E-02
  0.310999990       1.50938667E-02
  0.312000006       1.49359433E-02
  0.312999994       1.47758303E-02
  0.314000010       1.46136759E-02
  0.314999998       1.44496337E-02
  0.316000015       1.42838554E-02
  0.317000002       1.41164986E-02
  0.317999989       1.39477206E-02
  0.319000006       1.37776854E-02
  0.319999993       1.36065595E-02
  0.321000010       1.34345172E-02
  0.321999997       1.32617373E-02
  0.323000014       1.30884051E-02
  0.324000001       1.29147079E-02
  0.324999988       1.27408355E-02
  0.326000005       1.25669781E-02
  0.326999992       1.23933237E-02
  0.328000009       1.22200614E-02
  0.328999996       1.20473765E-02
  0.330000013       1.18754553E-02
  0.331000000       1.17044821E-02
  0.331999987       1.15346434E-02
  0.333000004       1.13661224E-02
  0.333999991       1.11991046E-02
  0.335000008       1.10337753E-02
  0.335999995       1.08703142E-02
  0.337000012       1.07089002E-02
  0.338000000       1.05497064E-02
  0.338999987       1.03928996E-02
  0.340000004       1.02386400E-02
  0.340999991       1.00870831E-02
  0.342000008       9.93837882E-03
  0.342999995       9.79266874E-03
  0.344000012       9.65009164E-03
  0.344999999       9.51077975E-03
  0.345999986       9.37486161E-03
  0.347000003       9.24246013E-03
  0.347999990       9.11369175E-03
  0.349000007       8.98866355E-03
  0.349999994       8.86747427E-03
  0.351000011       8.75021331E-03
  0.351999998       8.63695890E-03
  0.352999985       8.52778275E-03
  0.354000002       8.42274539E-03
  0.354999989       8.32190271E-03
  0.356000006       8.22530128E-03
  0.356999993       8.13298207E-03
  0.358000010       8.04497860E-03
  0.358999997       7.96131976E-03
  0.360000014       7.88202137E-03
  0.361000001       7.80709181E-03
  0.361999989       7.73652969E-03
  0.363000005       7.67032336E-03
  0.363999993       7.60845281E-03
  0.365000010       7.55088869E-03
  0.365999997       7.49759609E-03
  0.367000014       7.44853402E-03
  0.368000001       7.40365544E-03
  0.368999988       7.36290822E-03
  0.370000005       7.32623506E-03
  0.370999992       7.29357125E-03
  0.372000009       7.26484600E-03
  0.372999996       7.23997969E-03
  0.374000013       7.21888710E-03
  0.375000000       7.20147556E-03
  0.375999987       7.18764728E-03
  0.377000004       7.17730122E-03
  0.377999991       7.17033306E-03
  0.379000008       7.16663757E-03
  0.379999995       7.16610672E-03
  0.381000012       7.16863060E-03
  0.381999999       7.17409654E-03
  0.382999986       7.18238903E-03
  0.384000003       7.19338888E-03
  0.384999990       7.20697455E-03
  0.386000007       7.22302077E-03
  0.386999995       7.24140089E-03
  0.388000011       7.26198778E-03
  0.388999999       7.28465291E-03
  0.389999986       7.30927009E-03
  0.391000003       7.33571453E-03
  0.391999990       7.36386282E-03
  0.393000007       7.39359343E-03
  0.393999994       7.42478762E-03
  0.395000011       7.45732663E-03
  0.395999998       7.49109359E-03
  0.397000015       7.52597256E-03
  0.398000002       7.56184803E-03
  0.398999989       7.59860734E-03
  0.400000006       7.63613777E-03
  0.400999993       7.67432991E-03
  0.402000010       7.71307666E-03
  0.402999997       7.75227416E-03
  0.404000014       7.79182324E-03
  0.405000001       7.83162843E-03
  0.405999988       7.87159801E-03
  0.407000005       7.91164581E-03
  0.407999992       7.95168895E-03
  0.409000009       7.99164828E-03
  0.409999996       8.03144742E-03
  0.411000013       8.07101466E-03
  0.412000000       8.11028015E-03
  0.412999988       8.14917684E-03
  0.414000005       8.18764046E-03
  0.414999992       8.22561048E-03
  0.416000009       8.26303009E-03
  0.416999996       8.29984527E-03
  0.418000013       8.33600666E-03
  0.419000000       8.37147143E-03
  0.419999987       8.40619858E-03
  0.421000004       8.44015460E-03
  0.421999991       8.47330689E-03
  0.423000008       8.50562844E-03
  0.423999995       8.53709318E-03
  0.425000012       8.56767967E-03
  0.425999999       8.59736837E-03
  0.426999986       8.62613972E-03
  0.428000003       8.65397695E-03
  0.428999990       8.68086610E-03
  0.430000007       8.70679598E-03
  0.430999994       8.73176008E-03
  0.432000011       8.75575468E-03
  0.432999998       8.77877884E-03
  0.433999985       8.80083349E-03
  0.435000002       8.82192422E-03
  0.435999990       8.84205755E-03
  0.437000006       8.86124279E-03
  0.437999994       8.87948927E-03
  0.439000010       8.89680628E-03
  0.439999998       8.91320407E-03
  0.441000015       8.92869476E-03
  0.442000002       8.94328952E-03
  0.442999989       8.95700138E-03
  0.444000006       8.96984525E-03
  0.444999993       8.98183882E-03
  0.446000010       8.99300072E-03
  0.446999997       9.00335051E-03
  0.448000014       9.01290867E-03
  0.449000001       9.02169757E-03
  0.449999988       9.02973767E-03
  0.451000005       9.03705135E-03
  0.451999992       9.04365908E-03
  0.453000009       9.04958323E-03
  0.453999996       9.05484334E-03
  0.455000013       9.05946270E-03
  0.456000000       9.06346366E-03
  0.456999987       9.06686764E-03
  0.458000004       9.06969700E-03
  0.458999991       9.07197315E-03
  0.460000008       9.07371845E-03
  0.460999995       9.07495245E-03
  0.462000012       9.07569565E-03
  0.463000000       9.07596946E-03
  0.463999987       9.07579344E-03
  0.465000004       9.07518994E-03
  0.465999991       9.07418039E-03
  0.467000008       9.07278713E-03
  0.467999995       9.07102786E-03
  0.469000012       9.06892493E-03
  0.469999999       9.06649418E-03
  0.470999986       9.06375237E-03
  0.472000003       9.06071439E-03
  0.472999990       9.05739330E-03
  0.474000007       9.05380398E-03
  0.474999994       9.04996134E-03
  0.476000011       9.04588029E-03
  0.476999998       9.04157478E-03
  0.477999985       9.03706253E-03
  0.479000002       9.03236028E-03
  0.479999989       9.02748294E-03
  0.481000006       9.02244542E-03
  0.481999993       9.01726168E-03
  0.483000010       9.01194196E-03
  0.483999997       9.00649838E-03
  0.485000014       9.00093932E-03
  0.486000001       8.99527222E-03
  0.486999989       8.98950547E-03
  0.488000005       8.98364652E-03
  0.488999993       8.97770375E-03
  0.490000010       8.97168275E-03
  0.490999997       8.96559283E-03
  0.492000014       8.95944145E-03
  0.493000001       8.95323604E-03
  0.493999988       8.94698687E-03
  0.495000005       8.94070137E-03
  0.495999992       8.93438794E-03
  0.497000009       8.92805494E-03
  0.497999996       8.92170705E-03
  0.499000013       8.91534984E-03
  0.500000000       8.90898425E-03
  0.500999987       8.90261400E-03
  0.501999974       8.89624003E-03
  0.503000021       8.88986420E-03
  0.504000008       8.88348836E-03
  0.504999995       8.87711719E-03
  0.505999982       8.87075718E-03
  0.507000029       8.86441395E-03
  0.508000016       8.85809492E-03
  0.509000003       8.85180756E-03
  0.509999990       8.84555466E-03
  0.510999978       8.83933716E-03
  0.512000024       8.83315317E-03
  0.513000011       8.82700179E-03
  0.513999999       8.82087834E-03
  0.514999986       8.81478190E-03
  0.515999973       8.80871341E-03
  0.517000020       8.80267378E-03
  0.518000007       8.79666954E-03
  0.518999994       8.79070908E-03
  0.519999981       8.78479797E-03
  0.521000028       8.77894275E-03
  0.522000015       8.77314433E-03
  0.523000002       8.76740366E-03
  0.523999989       8.76171701E-03
  0.524999976       8.75607971E-03
  0.526000023       8.75048712E-03
  0.527000010       8.74493830E-03
  0.527999997       8.73943418E-03
  0.528999984       8.73397663E-03
  0.529999971       8.72857124E-03
  0.531000018       8.72322265E-03
  0.532000005       8.71793553E-03
  0.532999992       8.71271361E-03
  0.533999979       8.70755594E-03
  0.535000026       8.70245975E-03
  0.536000013       8.69742222E-03
  0.537000000       8.69243871E-03
  0.537999988       8.68750736E-03
  0.538999975       8.68262630E-03
  0.540000021       8.67779739E-03
  0.541000009       8.67302250E-03
  0.541999996       8.66830628E-03
  0.542999983       8.66365246E-03
  0.544000030       8.65906198E-03
  0.545000017       8.65453202E-03
  0.546000004       8.65006167E-03
  0.546999991       8.64564721E-03
  0.547999978       8.64128396E-03
  0.549000025       8.63697100E-03
  0.550000012       8.63270648E-03
  0.550999999       8.62849224E-03
  0.551999986       8.62433203E-03
  0.552999973       8.62022769E-03
  0.554000020       8.61618295E-03
  0.555000007       8.61219689E-03
  0.555999994       8.60826857E-03
  0.556999981       8.60439613E-03
  0.558000028       8.60057399E-03
  0.559000015       8.59679747E-03
  0.560000002       8.59306380E-03
  0.560999990       8.58937111E-03
  0.561999977       8.58571939E-03
  0.563000023       8.58211238E-03
  0.564000010       8.57855286E-03
  0.564999998       8.57504550E-03
  0.565999985       8.57159216E-03
  0.566999972       8.56819283E-03
  0.568000019       8.56484752E-03
  0.569000006       8.56155250E-03
  0.569999993       8.55830126E-03
  0.570999980       8.55509099E-03
  0.572000027       8.55191890E-03
  0.573000014       8.54878407E-03
  0.574000001       8.54568556E-03
  0.574999988       8.54262616E-03
  0.575999975       8.53960961E-03
  0.577000022       8.53663776E-03
  0.578000009       8.53370968E-03
  0.578999996       8.53082445E-03
  0.579999983       8.52798112E-03
  0.580999970       8.52517691E-03
  0.582000017       8.52240808E-03
  0.583000004       8.51967279E-03
  0.583999991       8.51697102E-03
  0.584999979       8.51430465E-03
  0.586000025       8.51167552E-03
  0.587000012       8.50908551E-03
  0.588000000       8.50653555E-03
  0.588999987       8.50402471E-03
  0.589999974       8.50155205E-03
  0.591000021       8.49911477E-03
  0.592000008       8.49670731E-03
  0.592999995       8.49432591E-03
  0.593999982       8.49196874E-03
  0.595000029       8.48963577E-03
  0.596000016       8.48732702E-03
  0.597000003       8.48504435E-03
  0.597999990       8.48279241E-03
  0.598999977       8.48057214E-03
  0.600000024       8.47838353E-03
  0.601000011       8.47622566E-03
  0.601999998       8.47409386E-03
  0.602999985       8.47198535E-03
  0.603999972       8.46989360E-03
  0.605000019       8.46781489E-03
  0.606000006       8.46575014E-03
  0.606999993       8.46369937E-03
  0.607999980       8.46166722E-03
  0.609000027       8.45965929E-03
  0.610000014       8.45767837E-03
  0.611000001       8.45572725E-03
  0.611999989       8.45380593E-03
  0.612999976       8.45191069E-03
  0.614000022       8.45003594E-03
  0.615000010       8.44817888E-03
  0.615999997       8.44633207E-03
  0.616999984       8.44449364E-03
  0.617999971       8.44266452E-03
  0.619000018       8.44084565E-03
  0.620000005       8.43904167E-03
  0.620999992       8.43725912E-03
  0.621999979       8.43550079E-03
  0.623000026       8.43376853E-03
  0.624000013       8.43206141E-03
  0.625000000       8.43037665E-03
  0.625999987       8.42871051E-03
  0.626999974       8.42706114E-03
  0.628000021       8.42542574E-03
  0.629000008       8.42380524E-03
  0.629999995       8.42220150E-03
  0.630999982       8.42061825E-03
  0.632000029       8.41905922E-03
  0.633000016       8.41752719E-03
  0.634000003       8.41602311E-03
  0.634999990       8.41454323E-03
  0.635999978       8.41308385E-03
  0.637000024       8.41164216E-03
  0.638000011       8.41021258E-03
  0.638999999       8.40879232E-03
  0.639999986       8.40738323E-03
  0.640999973       8.40598717E-03
  0.642000020       8.40460788E-03
  0.643000007       8.40325095E-03
  0.643999994       8.40191916E-03
  0.644999981       8.40061344E-03
  0.646000028       8.39933380E-03
  0.647000015       8.39807652E-03
  0.648000002       8.39683693E-03
  0.648999989       8.39561038E-03
  0.649999976       8.39439221E-03
  0.651000023       8.39318149E-03
  0.652000010       8.39197822E-03
  0.652999997       8.39078613E-03
  0.653999984       8.38960987E-03
  0.654999971       8.38845409E-03
  0.656000018       8.38731974E-03
  0.657000005       8.38620774E-03
  0.657999992       8.38511530E-03
  0.658999979       8.38403776E-03
  0.660000026       8.38297140E-03
  0.661000013       8.38190969E-03
  0.662000000       8.38085171E-03
  0.662999988       8.37979559E-03
  0.663999975       8.37874413E-03
  0.665000021       8.37770011E-03
  0.666000009       8.37666728E-03
  0.666999996       8.37565027E-03
  0.667999983       8.37465003E-03
  0.669000030       8.37366842E-03
  0.670000017       8.37270264E-03
  0.671000004       8.37174989E-03
  0.671999991       8.37080739E-03
  0.672999978       8.36987048E-03
  0.674000025       8.36893730E-03
  0.675000012       8.36800598E-03
  0.675999999       8.36707931E-03
  0.676999986       8.36615823E-03
  0.677999973       8.36524833E-03
  0.679000020       8.36435240E-03
  0.680000007       8.36347416E-03
  0.680999994       8.36261548E-03
  0.681999981       8.36177543E-03
  0.683000028       8.36095307E-03
  0.684000015       8.36014468E-03
  0.685000002       8.35934561E-03
  0.685999990       8.35855026E-03
  0.686999977       8.35775677E-03
  0.688000023       8.35696328E-03
  0.689000010       8.35617259E-03
  0.689999998       8.35538749E-03
  0.690999985       8.35461356E-03
  0.691999972       8.35385360E-03
  0.693000019       8.35311040E-03
  0.694000006       8.35238677E-03
  0.694999993       8.35167989E-03
  0.695999980       8.35098792E-03