 -0.159999996       0.00000000    
 -0.158999994       0.00000000    
 -0.158000007       0.00000000    
 -0.157000005       0.00000000    
 -0.156000003       0.00000000    
 -0.155000001       0.00000000    
 -0.153999999       0.00000000    
 -0.152999997       2.35141923E-24
 -0.151999995       2.63342265E-23
 -0.150999993       1.46855280E-22
 -0.150000006       5.28418010E-22
 -0.149000004       1.30706320E-21
 -0.148000002       2.04513823E-21
 -0.147000000       6.31300669E-22
 -0.145999998      -7.64416749E-21
 -0.144999996      -2.84235382E-20
 -0.143999994      -6.01279655E-20
 -0.143000007      -7.68960927E-20
 -0.142000005      -8.26529692E-21
 -0.141000003       2.62883892E-19
 -0.140000001       8.45383239E-19
 -0.138999999       1.68847746E-18
 -0.137999997       2.33675214E-18
 -0.136999995       1.69618730E-18
 -0.136000007      -1.93925981E-18
 -0.135000005      -1.02452705E-17
 -0.134000003      -2.33302321E-17
 -0.133000001      -3.74366030E-17
 -0.131999999      -4.28041681E-17
 -0.130999997      -2.35761678E-17
 -0.129999995       3.78080270E-17
 -0.128999993       1.49947053E-16
 -0.128000006       2.96363090E-16
 -0.127000004       4.19371386E-16
 -0.126000002       4.14684038E-16
 -0.125000000       1.50642917E-16
 -0.123999998      -4.76975635E-16
 -0.123000003      -1.45598071E-15
 -0.122000001      -2.55787793E-15
 -0.120999999      -3.27623365E-15
 -0.119999997      -2.87034372E-15
 -0.119000003      -5.74869562E-16
 -0.118000001       4.00881551E-15
 -0.116999999       1.04102018E-14
 -0.115999997       1.68570280E-14
 -0.115000002       2.01856540E-14
 -0.114000000       1.63823050E-14
 -0.112999998       1.92265531E-15
 -0.112000003      -2.42034735E-14
 -0.111000001      -5.82976389E-14
 -0.109999999      -9.05069476E-14
 -0.108999997      -1.05259551E-13
 -0.108000003      -8.45318620E-14
 -0.107000001      -1.41819108E-14
 -0.105999999       1.07636204E-13
 -0.104999997       2.62411159E-13
 -0.104000002       4.07168792E-13
 -0.103000000       4.78167094E-13
 -0.101999998       4.04992365E-13
 -0.101000004       1.34729657E-13
 -0.100000001      -3.38324502E-13
  -9.89999995E-02  -9.46303257E-13
  -9.79999974E-02  -1.53651451E-12
  -9.70000029E-02  -1.88659678E-12
  -9.60000008E-02  -1.75242037E-12
  -9.49999988E-02  -9.45584973E-13
  -9.39999968E-02   5.74862694E-13
  -9.30000022E-02   2.62336203E-12
  -9.20000002E-02   4.75452100E-12
  -9.09999982E-02   6.30536812E-12
  -9.00000036E-02   6.52791796E-12
  -8.90000015E-02   4.80110786E-12
  -8.79999995E-02   8.80213979E-13
  -8.69999975E-02  -4.88531221E-12
  -8.60000029E-02  -1.14474923E-11
  -8.50000009E-02  -1.71404748E-11
  -8.39999989E-02  -1.99804305E-11
  -8.29999968E-02  -1.81592085E-11
  -8.20000023E-02  -1.06373235E-11
  -8.10000002E-02   2.31641464E-12
  -7.99999982E-02   1.88171249E-11
  -7.90000036E-02   3.54430825E-11
  -7.80000016E-02   4.77796865E-11
  -7.69999996E-02   5.13855729E-11
  -7.59999976E-02   4.30028096E-11
  -7.50000030E-02   2.17207207E-11
  -7.40000010E-02  -1.02466074E-11
  -7.29999989E-02  -4.74678734E-11
  -7.19999969E-02  -8.20484375E-11
  -7.10000023E-02  -1.05181468E-10
  -7.00000003E-02  -1.09213860E-10
  -6.89999983E-02  -8.97535171E-11
  -6.80000037E-02  -4.72595331E-11
  -6.70000017E-02   1.23810684E-11
  -6.59999996E-02   7.85743068E-11
  -6.49999976E-02   1.38001818E-10
  -6.40000030E-02   1.77480530E-10
  -6.30000010E-02   1.87037164E-10
  -6.19999990E-02   1.62416622E-10
  -6.10000007E-02   1.06335586E-10
  -5.99999987E-02   2.80880406E-11
  -5.90000004E-02  -5.84609305E-11
  -5.79999983E-02  -1.38009271E-10
  -5.70000000E-02  -1.97262817E-10
  -5.60000017E-02  -2.27762212E-10
  -5.49999997E-02  -2.27322064E-10
  -5.40000014E-02  -1.99708319E-10
  -5.29999994E-02  -1.52706306E-10
  -5.20000011E-02  -9.52299975E-11
  -5.09999990E-02  -3.44354302E-11
  -5.00000007E-02   2.61823341E-11
  -4.89999987E-02   8.70322911E-11
  -4.80000004E-02   1.50876991E-10
  -4.69999984E-02   2.19976176E-10
  -4.60000001E-02   2.92913721E-10
  -4.50000018E-02   3.62304492E-10
  -4.39999998E-02   4.14402873E-10
  -4.30000015E-02   4.31104458E-10
  -4.19999994E-02   3.94092842E-10
  -4.10000011E-02   2.90159008E-10
  -3.99999991E-02   1.16243487E-10
  -3.90000008E-02  -1.17310772E-10
  -3.79999988E-02  -3.86407545E-10
  -3.70000005E-02  -6.56103505E-10
  -3.59999985E-02  -8.86228091E-10
  -3.50000001E-02  -1.03840980E-09
  -3.40000018E-02  -1.08281495E-09
  -3.29999998E-02  -1.00301989E-09
  -3.20000015E-02  -7.98026811E-10
  -3.09999995E-02  -4.81303608E-10
  -2.99999993E-02  -7.76024245E-11
  -2.89999992E-02   3.81115361E-10
  -2.80000009E-02   8.59229743E-10
  -2.70000007E-02   1.31951261E-09
  -2.60000005E-02   1.72351289E-09
  -2.50000004E-02   2.03101069E-09
  -2.40000002E-02   2.19991003E-09
  -2.30000000E-02   2.18806306E-09
  -2.19999999E-02   1.95800309E-09
  -2.09999997E-02   1.48455426E-09
  -1.99999996E-02   7.64060482E-10
  -1.89999994E-02  -1.77034040E-10
  -1.79999992E-02  -1.27695421E-09
  -1.70000009E-02  -2.43904963E-09
  -1.60000008E-02  -3.53913965E-09
  -1.49999997E-02  -4.43932535E-09
  -1.40000004E-02  -5.00619102E-09
  -1.30000003E-02  -5.13011811E-09
  -1.20000001E-02  -4.74205741E-09
  -1.09999999E-02  -3.82469567E-09
  -9.99999978E-03  -2.41631160E-09
  -8.99999961E-03  -6.07344230E-10
  -8.00000038E-03   1.46873236E-09
  -7.00000022E-03   3.64772834E-09
  -6.00000005E-03   5.74773296E-09
  -4.99999989E-03   7.58110108E-09
  -4.00000019E-03   8.96507224E-09
  -3.00000003E-03   9.73192993E-09
  -2.00000009E-03   9.74028769E-09
  -1.00000005E-03   8.88879814E-09
   0.00000000       7.13236092E-09
   1.00000005E-03   4.49905313E-09
   2.00000009E-03   1.10420473E-09
   3.00000003E-03  -2.84302093E-09
   4.00000019E-03  -7.04494241E-09
   4.99999989E-03  -1.11352358E-08
   6.00000005E-03  -1.47130796E-08
   7.00000022E-03  -1.73878316E-08
   8.00000038E-03  -1.88274374E-08
   8.99999961E-03  -1.88021172E-08
   9.99999978E-03  -1.72151537E-08
   1.09999999E-02  -1.41148533E-08
   1.20000001E-02  -9.68561054E-09
   1.30000003E-02  -4.22036273E-09
   1.40000004E-02   1.91949168E-09
   1.49999997E-02   8.34847125E-09
   1.60000008E-02   1.46974726E-08
   1.70000009E-02   2.06442525E-08
   1.79999992E-02   2.59314721E-08
   1.89999994E-02   3.03737977E-08
   1.99999996E-02   3.38585693E-08
   2.09999997E-02   3.63457815E-08
   2.19999999E-02   3.78720557E-08
   2.30000000E-02   3.85604153E-08
   2.40000002E-02   3.86337113E-08
   2.50000004E-02   3.84260446E-08
   2.60000005E-02   3.83847016E-08
   2.70000007E-02   3.90556245E-08
   2.80000009E-02   4.10486081E-08
   2.89999992E-02   4.49835937E-08
   2.99999993E-02   5.14249123E-08
   3.09999995E-02   6.08150117E-08
   3.20000015E-02   7.34212122E-08
   3.29999998E-02   8.93077896E-08
   3.40000018E-02   1.08341112E-07
   3.50000001E-02   1.30228770E-07
   3.59999985E-02   1.54586161E-07
   3.70000005E-02   1.81017867E-07
   3.79999988E-02   2.09198291E-07
   3.90000008E-02   2.38936252E-07
   3.99999991E-02   2.70213661E-07
   4.10000011E-02   3.03194611E-07
   4.19999994E-02   3.38209588E-07
   4.30000015E-02   3.75725818E-07
   4.39999998E-02   4.16317079E-07
   4.50000018E-02   4.60646419E-07
   4.60000001E-02   5.09468805E-07
   4.69999984E-02   5.63653714E-07
   4.80000004E-02   6.24220434E-07
   4.89999987E-02   6.92371884E-07
   5.00000007E-02   7.69511360E-07
   5.09999990E-02   8.57229622E-07
   5.20000011E-02   9.57256702E-07
   5.29999994E-02   1.07138135E-06
   5.40000014E-02   1.20135337E-06
   5.49999997E-02   1.34878826E-06
   5.60000017E-02   1.51509630E-06
   5.70000000E-02   1.70145688E-06
   5.79999983E-02   1.90884725E-06
   5.90000004E-02   2.13812632E-06
   5.99999987E-02   2.39015981E-06
   6.10000007E-02   2.66596658E-06
   6.19999990E-02   2.96686039E-06
   6.30000010E-02   3.29456202E-06
   6.40000030E-02   3.65126903E-06
   6.49999976E-02   4.03967488E-06
   6.59999996E-02   4.46294735E-06
   6.70000017E-02   4.92467552E-06
   6.80000037E-02   5.42881435E-06
   6.89999983E-02   5.97963390E-06
   7.00000003E-02   6.58169529E-06
   7.10000023E-02   7.23985113E-06
   7.19999969E-02   7.95926917E-06
   7.29999989E-02   8.74546367E-06
   7.40000010E-02   9.60431680E-06
   7.50000030E-02   1.05420868E-05
   7.59999976E-02   1.15653820E-05
   7.69999996E-02   1.26811128E-05
   7.80000016E-02   1.38964260E-05
   7.90000036E-02   1.52186358E-05
   7.99999982E-02   1.66551690E-05
   8.10000002E-02   1.82135464E-05
   8.20000023E-02   1.99013921E-05
   8.29999968E-02   2.17265006E-05
   8.39999989E-02   2.36969245E-05
   8.50000009E-02   2.58210966E-05
   8.60000029E-02   2.81079738E-05
   8.69999975E-02   3.05671601E-05
   8.79999995E-02   3.32090203E-05
   8.90000015E-02   3.60447702E-05
   9.00000036E-02   3.90865098E-05
   9.09999982E-02   4.23472302E-05
   9.20000002E-02   4.58407449E-05
   9.30000022E-02   4.95815948E-05
   9.39999968E-02   5.35849249E-05
   9.49999988E-02   5.78663239E-05
   9.60000008E-02   6.24417007E-05
   9.70000029E-02   6.73271570E-05
   9.79999974E-02   7.25389109E-05
   9.89999995E-02   7.80932896E-05
  0.100000001       8.40067369E-05
  0.101000004       9.02959291E-05
  0.101999998       9.69778121E-05
  0.103000000       1.04069703E-04
  0.104000002       1.11589296E-04
  0.104999997       1.19554628E-04
  0.105999999       1.27983963E-04
  0.107000001       1.36895571E-04
  0.108000003       1.46307633E-04
  0.108999997       1.56238093E-04
  0.109999999       1.66704544E-04
  0.111000001       1.77724287E-04
  0.112000003       1.89314465E-04
  0.112999998       2.01492134E-04
  0.114000000       2.14274463E-04
  0.115000002       2.27678858E-04
  0.115999997       2.41722868E-04
  0.116999999       2.56424100E-04
  0.118000001       2.71799887E-04
  0.119000003       2.87866889E-04
  0.119999997       3.04640766E-04
  0.120999999       3.22135777E-04
  0.122000001       3.40364466E-04
  0.123000003       3.59337690E-04
  0.123999998       3.79064644E-04
  0.125000000       3.99553071E-04
  0.126000002       4.20809374E-04
  0.127000004       4.42838791E-04
  0.128000006       4.65645426E-04
  0.128999993       4.89232130E-04
  0.129999995       5.13600186E-04
  0.130999997       5.38748864E-04
  0.131999999       5.64675371E-04
  0.133000001       5.91374410E-04
  0.134000003       6.18838181E-04
  0.135000005       6.47056382E-04
  0.136000007       6.76016614E-04
  0.136999995       7.05704617E-04
  0.137999997       7.36104383E-04
  0.138999999       7.67198508E-04
  0.140000001       7.98967783E-04
  0.141000003       8.31391197E-04
  0.142000005       8.64445348E-04
  0.143000007       8.98104045E-04
  0.143999994       9.32338124E-04
  0.144999996       9.67115106E-04
  0.145999998       1.00239937E-03
  0.147000000       1.03815238E-03
  0.148000002       1.07433298E-03
  0.149000004       1.11089821E-03
  0.150000006       1.14780338E-03
  0.150999993       1.18500215E-03
  0.151999995       1.22244679E-03
  0.152999997       1.26008748E-03
  0.153999999       1.29787228E-03
  0.155000001       1.33574673E-03
  0.156000003       1.37365365E-03
  0.157000005       1.41153380E-03
  0.158000007       1.44932547E-03
  0.158999994       1.48696592E-03
  0.159999996       1.52439170E-03
  0.160999998       1.56153925E-03
  0.162000000       1.59834547E-03
  0.163000003       1.63474772E-03
  0.164000005       1.67068362E-03
  0.165000007       1.70609041E-03
  0.165999994       1.74090487E-03
  0.166999996       1.77506241E-03
  0.167999998       1.80849794E-03
  0.169000000       1.84114522E-03
  0.170000002       1.87293801E-03
  0.171000004       1.90381089E-03
  0.172000006       1.93369994E-03
  0.172999993       1.96254300E-03
  0.173999995       1.99028081E-03
  0.174999997       2.01685610E-03
  0.175999999       2.04221369E-03
  0.177000001       2.06630002E-03
  0.178000003       2.08906271E-03
  0.179000005       2.11045006E-03
  0.180000007       2.13041157E-03
  0.180999994       2.14889785E-03
  0.181999996       2.16586119E-03
  0.182999998       2.18125735E-03
  0.184000000       2.19504558E-03
  0.185000002       2.20718957E-03
  0.186000004       2.21765717E-03
  0.187000006       2.22642091E-03
  0.187999994       2.23345729E-03
  0.188999996       2.23874464E-03
  0.189999998       2.24226387E-03
  0.191000000       2.24399683E-03
  0.192000002       2.24392675E-03
  0.193000004       2.24203942E-03
  0.194000006       2.23832182E-03
  0.194999993       2.23276531E-03
  0.195999995       2.22536549E-03
  0.196999997       2.21612211E-03
  0.197999999       2.20503984E-03
  0.199000001       2.19212659E-03
  0.200000003       2.17739330E-03
  0.201000005       2.16085324E-03
  0.202000007       2.14252085E-03
  0.202999994       2.12241197E-03
  0.203999996       2.10054358E-03
  0.204999998       2.07693409E-03
  0.206000000       2.05160514E-03
  0.207000002       2.02458049E-03
  0.208000004       1.99588784E-03
  0.209000006       1.96555816E-03
  0.209999993       1.93362602E-03
  0.210999995       1.90012855E-03
  0.211999997       1.86510442E-03
  0.213000000       1.82859367E-03
  0.214000002       1.79063703E-03
  0.215000004       1.75127550E-03
  0.216000006       1.71055074E-03
  0.216999993       1.66850584E-03
  0.217999995       1.62518583E-03
  0.218999997       1.58063811E-03
  0.219999999       1.53491308E-03
  0.221000001       1.48806348E-03
  0.222000003       1.44014426E-03
  0.223000005       1.39121129E-03
  0.224000007       1.34132151E-03
  0.224999994       1.29053171E-03
  0.225999996       1.23889814E-03
  0.226999998       1.18647644E-03
  0.228000000       1.13332272E-03
  0.229000002       1.07949425E-03
  0.230000004       1.02505006E-03
  0.231000006       9.70052264E-04
  0.231999993       9.14565462E-04
  0.232999995       8.58656829E-04
  0.233999997       8.02395691E-04
  0.234999999       7.45852129E-04
  0.236000001       6.89096225E-04
  0.237000003       6.32197945E-04
  0.238000005       5.75227314E-04
  0.238999993       5.18254703E-04
  0.239999995       4.61351563E-04
  0.240999997       4.04591497E-04
  0.241999999       3.48050293E-04
  0.243000001       2.91806238E-04
  0.244000003       2.35939442E-04
  0.245000005       1.80531177E-04
  0.246000007       1.25662817E-04
  0.246999994       7.14148046E-05
  0.247999996       1.78664995E-05
  0.248999998      -3.49037655E-05
  0.250000000      -8.68184434E-05
  0.250999987      -1.37799987E-04
  0.252000004      -1.87769678E-04
  0.252999991      -2.36647349E-04
  0.254000008      -2.84351379E-04
  0.254999995      -3.30798764E-04
  0.256000012      -3.75906006E-04
  0.256999999      -4.19589836E-04
  0.257999986      -4.61768592E-04
  0.259000003      -5.02362847E-04
  0.259999990      -5.41295914E-04
  0.261000007      -5.78493928E-04
  0.261999995      -6.13885117E-04
  0.263000011      -6.47399691E-04
  0.263999999      -6.78968674E-04
  0.264999986      -7.08523905E-04
  0.266000003      -7.35998445E-04
  0.266999990      -7.61326868E-04
  0.268000007      -7.84446544E-04
  0.268999994      -8.05298798E-04
  0.270000011      -8.23829963E-04
  0.270999998      -8.39991786E-04
  0.272000015      -8.53742182E-04
  0.273000002      -8.65044771E-04
  0.273999989      -8.73868354E-04
  0.275000006      -8.80186679E-04
  0.275999993      -8.83977453E-04
  0.277000010      -8.85222573E-04
  0.277999997      -8.83908360E-04
  0.279000014      -8.80026142E-04
  0.280000001      -8.73572426E-04
  0.280999988      -8.64550122E-04
  0.282000005      -8.52968893E-04
  0.282999992      -8.38845619E-04
  0.284000009      -8.22204864E-04
  0.284999996      -8.03078758E-04
  0.286000013      -7.81506416E-04
  0.287000000      -7.57534115E-04
  0.287999988      -7.31214066E-04
  0.289000005      -7.02604419E-04
  0.289999992      -6.71769085E-04
  0.291000009      -6.38777739E-04
  0.291999996      -6.03706285E-04
  0.293000013      -5.66637493E-04
  0.294000000      -5.27661992E-04
  0.294999987      -4.86878416E-04
  0.296000004      -4.44393314E-04
  0.296999991      -4.00321063E-04
  0.298000008      -3.54783551E-04
  0.298999995      -3.07908718E-04
  0.300000012      -2.59829278E-04
  0.300999999      -2.10681887E-04
  0.301999986      -1.60605996E-04
  0.303000003      -1.09744105E-04
  0.303999990      -5.82412431E-05
  0.305000007      -6.24578206E-06
  0.305999994       4.60899646E-05
  0.307000011       9.86097220E-05
  0.307999998       1.51153232E-04
  0.308999985       2.03556992E-04
  0.310000002       2.55655090E-04
  0.310999990       3.07280279E-04
  0.312000006       3.58265592E-04
  0.312999994       4.08445456E-04
  0.314000010       4.57656337E-04
  0.314999998       5.05737087E-04
  0.316000015       5.52528829E-04
  0.317000002       5.97874576E-04
  0.317999989       6.41619146E-04
  0.319000006       6.83608872E-04
  0.319999993       7.23692181E-04
  0.321000010       7.61720177E-04
  0.321999997       7.97548040E-04
  0.323000014       8.31036421E-04
  0.324000001       8.62052606E-04
  0.324999988       8.90471681E-04
  0.326000005       9.16177116E-04
  0.326999992       9.39060585E-04
  0.328000009       9.59021912E-04
  0.328999996       9.75968316E-04
  0.330000013       9.89814522E-04
  0.331000000       1.00048201E-03
  0.331999987       1.00789999E-03
  0.333000004       1.01200538E-03
  0.333999991       1.01274403E-03
  0.335000008       1.01007195E-03
  0.335999995       1.00395631E-03
  0.337000012       9.94375790E-04
  0.338000000       9.81320743E-04
  0.338999987       9.64792795E-04
  0.340000004       9.44804226E-04
  0.340999991       9.21376632E-04
  0.342000008       8.94540281E-04
  0.342999995       8.64333357E-04
  0.344000012       8.30801670E-04
  0.344999999       7.93998712E-04
  0.345999986       7.53986300E-04
  0.347000003       7.10835506E-04
  0.347999990       6.64627180E-04
  0.349000007       6.15452125E-04
  0.349999994       5.63411159E-04
  0.351000011       5.08614001E-04
  0.351999998       4.51178494E-04
  0.352999985       3.91229492E-04
  0.354000002       3.28897178E-04
  0.354999989       2.64316244E-04
  0.356000006       1.97625239E-04
  0.356999993       1.28966756E-04
  0.358000010       5.84879162E-05
  0.358999997      -1.36594617E-05
  0.360000014      -8.73184617E-05
  0.361000001      -1.62327036E-04
  0.361999989      -2.38518827E-04
  0.363000005      -3.15724348E-04
  0.363999993      -3.93772469E-04
  0.365000010      -4.72492218E-04
  0.365999997      -5.51714213E-04
  0.367000014      -6.31271745E-04
  0.368000001      -7.11000757E-04
  0.368999988      -7.90740014E-04
  0.370000005      -8.70330201E-04
  0.370999992      -9.49613284E-04
  0.372000009      -1.02843205E-03
  0.372999996      -1.10663066E-03
  0.374000013      -1.18405465E-03
  0.375000000      -1.26055256E-03
  0.375999987      -1.33597699E-03
  0.377000004      -1.41018606E-03
  0.377999991      -1.48304424E-03
  0.379000008      -1.55442348E-03
  0.379999995      -1.62420294E-03
  0.381000012      -1.69226888E-03
  0.381999999      -1.75851327E-03
  0.382999986      -1.82283390E-03
  0.384000003      -1.88513345E-03
  0.384999990      -1.94531935E-03
  0.386000007      -2.00330419E-03
  0.386999995      -2.05900683E-03
  0.388000011      -2.11235206E-03
  0.388999999      -2.16327305E-03
  0.389999986      -2.21171114E-03
  0.391000003      -2.25761649E-03
  0.391999990      -2.30094767E-03
  0.393000007      -2.34167185E-03
  0.393999994      -2.37976271E-03
  0.395000011      -2.41520000E-03
  0.395999998      -2.44796951E-03
  0.397000015      -2.47806241E-03
  0.398000002      -2.50547542E-03
  0.398999989      -2.53021019E-03
  0.400000006      -2.55227555E-03
  0.400999993      -2.57168571E-03
  0.402000010      -2.58846162E-03
  0.402999997      -2.60263076E-03
  0.404000014      -2.61422573E-03
  0.405000001      -2.62328424E-03
  0.405999988      -2.62984820E-03
  0.407000005      -2.63396301E-03
  0.407999992      -2.63567688E-03
  0.409000009      -2.63504055E-03
  0.409999996      -2.63210712E-03
  0.411000013      -2.62693246E-03
  0.412000000      -2.61957617E-03
  0.412999988      -2.61010113E-03
  0.414000005      -2.59857392E-03
  0.414999992      -2.58506509E-03
  0.416000009      -2.56964797E-03
  0.416999996      -2.55239825E-03
  0.418000013      -2.53339345E-03
  0.419000000      -2.51271180E-03
  0.419999987      -2.49043223E-03
  0.421000004      -2.46663275E-03
  0.421999991      -2.44139065E-03
  0.423000008      -2.41478276E-03
  0.423999995      -2.38688570E-03
  0.425000012      -2.35777558E-03
  0.425999999      -2.32752832E-03
  0.426999986      -2.29622028E-03
  0.428000003      -2.26392667E-03
  0.428999990      -2.23072316E-03
  0.430000007      -2.19668355E-03
  0.430999994      -2.16188072E-03
  0.432000011      -2.12638522E-03
  0.432999998      -2.09026597E-03
  0.433999985      -2.05359003E-03
  0.435000002      -2.01642304E-03
  0.435999990      -1.97882904E-03
  0.437000006      -1.94087019E-03
  0.437999994      -1.90260750E-03
  0.439000010      -1.86410046E-03
  0.439999998      -1.82540680E-03
  0.441000015      -1.78658229E-03
  0.442000002      -1.74768071E-03
  0.442999989      -1.70875352E-03
  0.444000006      -1.66984962E-03
  0.444999993      -1.63101510E-03
  0.446000010      -1.59229327E-03
  0.446999997      -1.55372522E-03
  0.448000014      -1.51534949E-03
  0.449000001      -1.47720287E-03
  0.449999988      -1.43932074E-03
  0.451000005      -1.40173663E-03
  0.451999992      -1.36448315E-03
  0.453000009      -1.32759102E-03
  0.453999996      -1.29108876E-03
  0.455000013      -1.25500257E-03
  0.456000000      -1.21935632E-03
  0.456999987      -1.18417060E-03
  0.458000004      -1.14946358E-03
  0.458999991      -1.11525028E-03
  0.460000008      -1.08154374E-03
  0.460999995      -1.04835548E-03
  0.462000012      -1.01569586E-03
  0.463000000      -9.83575126E-04
  0.463999987      -9.52003465E-04
  0.465000004      -9.20991122E-04
  0.465999991      -8.90547875E-04
  0.467000008      -8.60682281E-04
  0.467999995      -8.31401208E-04
  0.469000012      -8.02709197E-04
  0.469999999      -7.74608634E-04
  0.470999986      -7.47099344E-04
  0.472000003      -7.20179582E-04
  0.472999990      -6.93846610E-04
  0.474000007      -6.68097520E-04
  0.474999994      -6.42929692E-04
  0.476000011      -6.18340797E-04
  0.476999998      -5.94328681E-04
  0.477999985      -5.70890785E-04
  0.479000002      -5.48023323E-04
  0.479999989      -5.25721000E-04
  0.481000006      -5.03976597E-04
  0.481999993      -4.82781150E-04
  0.483000010      -4.62124503E-04
  0.483999997      -4.41996148E-04
  0.485000014      -4.22386307E-04
  0.486000001      -4.03286482E-04
  0.486999989      -3.84689862E-04
  0.488000005      -3.66590917E-04
  0.488999993      -3.48984962E-04
  0.490000010      -3.31867021E-04
  0.490999997      -3.15231184E-04
  0.492000014      -2.99069565E-04
  0.493000001      -2.83372152E-04
  0.493999988      -2.68127536E-04
  0.495000005      -2.53323175E-04
  0.495999992      -2.38946726E-04
  0.497000009      -2.24986856E-04
  0.497999996      -2.11434104E-04
  0.499000013      -1.98281195E-04
  0.500000000      -1.85522527E-04
  0.500999987      -1.73153530E-04
  0.501999974      -1.61169461E-04
  0.503000021      -1.49564556E-04
  0.504000008      -1.38331277E-04
  0.504999995      -1.27460022E-04
  0.505999982      -1.16939584E-04
  0.507000029      -1.06757579E-04
  0.508000016      -9.69014363E-05
  0.509000003      -8.73594981E-05
  0.509999990      -7.81215422E-05
  0.510999978      -6.91795285E-05
  0.512000024      -6.05272799E-05
  0.513000011      -5.21600014E-05
  0.513999999      -4.40733493E-05
  0.514999986      -3.62623723E-05
  0.515999973      -2.87212260E-05
  0.517000020      -2.14424654E-05
  0.518000007      -1.44173773E-05
  0.518999994      -7.63648313E-06
  0.519999981      -1.09025655E-06
  0.521000028       5.22994651E-06
  0.522000015       1.13310389E-05
  0.523000002       1.72181353E-05
  0.523999989       2.28950357E-05
  0.524999976       2.83647059E-05
  0.526000023       3.36304001E-05
  0.527000010       3.86964202E-05
  0.527999997       4.35688744E-05
  0.528999984       4.82557407E-05
  0.529999971       5.27664415E-05
  0.531000018       5.71110832E-05
  0.532000005       6.12992953E-05
  0.532999992       6.53394745E-05
  0.533999979       6.92379981E-05
  0.535000026       7.29990643E-05
  0.536000013       7.66251978E-05
  0.537000000       8.01179194E-05
  0.537999988       8.34786188E-05
  0.538999975       8.67096460E-05
  0.540000021       8.98146900E-05
  0.541000009       9.27987057E-05
  0.541999996       9.56676158E-05
  0.542999983       9.84274739E-05
  0.544000030       1.01083671E-04
  0.545000017       1.03640581E-04
  0.546000004       1.06100983E-04
  0.546999991       1.08466484E-04
  0.547999978       1.10738009E-04
  0.549000025       1.12916619E-04
  0.550000012       1.15004208E-04
  0.550999999       1.17003889E-04
  0.551999986       1.18919917E-04
  0.552999973       1.20757104E-04
  0.554000020       1.22520330E-04
  0.555000007       1.24213824E-04
  0.555999994       1.25840830E-04
  0.556999981       1.27403240E-04
  0.558000028       1.28902175E-04
  0.559000015       1.30338420E-04
  0.560000002       1.31713110E-04
  0.560999990       1.33028254E-04
  0.561999977       1.34286835E-04
  0.563000023       1.35492417E-04
  0.564000010       1.36648567E-04
  0.564999998       1.37758252E-04
  0.565999985       1.38823263E-04
  0.566999972       1.39844051E-04
  0.568000019       1.40819902E-04
  0.569000006       1.41749537E-04
  0.569999993       1.42631849E-04
  0.570999980       1.43466750E-04
  0.572000027       1.44255406E-04
  0.573000014       1.45000333E-04
  0.574000001       1.45705184E-04
  0.574999988       1.46374063E-04
  0.575999975       1.47010825E-04
  0.577000022       1.47618615E-04
  0.578000009       1.48199513E-04
  0.578999996       1.48754567E-04
  0.579999983       1.49284024E-04
  0.580999970       1.49787826E-04
  0.582000017       1.50266249E-04
  0.583000004       1.50720109E-04
  0.583999991       1.51150773E-04
  0.584999979       1.51560089E-04
  0.586000025       1.51950080E-04
  0.587000012       1.52322405E-04
  0.588000000       1.52678287E-04
  0.588999987       1.53018045E-04
  0.589999974       1.53341112E-04
  0.591000021       1.53646164E-04
  0.592000008       1.53931411E-04
  0.592999995       1.54195091E-04
  0.593999982       1.54435926E-04
  0.595000029       1.54653564E-04
  0.596000016       1.54848676E-04
  0.597000003       1.55022921E-04
  0.597999990       1.55178830E-04
  0.598999977       1.55319183E-04
  0.600000024       1.55446411E-04
  0.601000011       1.55562258E-04
  0.601999998       1.55667280E-04
  0.602999985       1.55760848E-04
  0.603999972       1.55841379E-04
  0.605000019       1.55906775E-04
  0.606000006       1.55955146E-04
  0.606999993       1.55985414E-04
  0.607999980       1.55997288E-04
  0.609000027       1.55991554E-04
  0.610000014       1.55969668E-04
  0.611000001       1.55933347E-04
  0.611999989       1.55883783E-04
  0.612999976       1.55821268E-04
  0.614000022       1.55744841E-04
  0.615000010       1.55652378E-04
  0.615999997       1.55541056E-04
  0.616999984       1.55408037E-04
  0.617999971       1.55251444E-04
  0.619000018       1.55070898E-04
  0.620000005       1.54867623E-04
  0.620999992       1.54644498E-04
  0.621999979       1.54405410E-04
  0.623000026       1.54154171E-04
  0.624000013       1.53894041E-04
  0.625000000       1.53626897E-04
  0.625999987       1.53353074E-04
  0.626999974       1.53071582E-04
  0.628000021       1.52780747E-04
  0.629000008       1.52478940E-04
  0.629999995       1.52165288E-04
  0.630999982       1.51840301E-04
  0.632000029       1.51505825E-04
  0.633000016       1.51164684E-04
  0.634000003       1.50819891E-04
  0.634999990       1.50473643E-04
  0.635999978       1.50126973E-04
  0.637000024       1.49779313E-04
  0.638000011       1.49428801E-04
  0.638999999       1.49072672E-04
  0.639999986       1.48708379E-04
  0.640999973       1.48334308E-04
  0.642000020       1.47950443E-04
  0.643000007       1.47558341E-04
  0.643999994       1.47160928E-04
  0.644999981       1.46761784E-04
  0.646000028       1.46364328E-04
  0.647000015       1.45970858E-04
  0.648000002       1.45582133E-04
  0.648999989       1.45197395E-04
  0.649999976       1.44814752E-04
  0.651000023       1.44431833E-04
  0.652000010       1.44047095E-04
  0.652999997       1.43660378E-04
  0.653999984       1.43273050E-04
  0.654999971       1.42887846E-04
  0.656000018       1.42508041E-04
  0.657000005       1.42136487E-04
  0.657999992       1.41774697E-04
  0.658999979       1.41422395E-04
  0.660000026       1.41077340E-04
  0.661000013       1.40735719E-04
  0.662000000       1.40393109E-04
  0.662999988       1.40045566E-04
  0.663999975       1.39690383E-04
  0.665000021       1.39326818E-04
  0.666000009       1.38956195E-04
  0.666999996       1.38581338E-04
  0.667999983       1.38205869E-04
  0.669000030       1.37833194E-04
  0.670000017       1.37465468E-04
  0.671000004       1.37103110E-04
  0.671999991       1.36744828E-04
  0.672999978       1.36388029E-04
  0.674000025       1.36030038E-04
  0.675000012       1.35668874E-04
  0.675999999       1.35303955E-04
  0.676999986       1.34936636E-04
  0.677999973       1.34570015E-04
  0.679000020       1.34208123E-04
  0.680000007       1.33855021E-04
  0.680999994       1.33513895E-04
  0.681999981       1.33185953E-04
  0.683000028       1.32870104E-04
  0.684000015       1.32563131E-04
  0.685000002       1.32260451E-04
  0.685999990       1.31957451E-04
  0.686999977       1.31650580E-04
  0.688000023       1.31338544E-04
  0.689000010       1.31022418E-04
  0.689999998       1.30705535E-04
  0.690999985       1.30392364E-04
  0.691999972       1.30087501E-04
  0.693000019       1.29794164E-04
  0.694000006       1.29513472E-04
  0.694999993       1.29243839E-04
  0.695999980       1.28981832E-04