 -0.159999996       0.00000000    
 -0.158999994       0.00000000    
 -0.158000007       0.00000000    
 -0.157000005       0.00000000    
 -0.156000003       0.00000000    
 -0.155000001      -4.91973360E-20
 -0.153999999      -3.78357530E-19
 -0.152999997      -1.41806902E-18
 -0.151999995      -3.22890324E-18
 -0.150999993      -4.16314667E-18
 -0.150000006       4.79968836E-20
 -0.149000004       1.37530928E-17
 -0.148000002       3.23128346E-17
 -0.147000000       2.78888476E-17
 -0.145999998      -5.93818403E-17
 -0.144999996      -3.05759280E-16
 -0.143999994      -7.47375921E-16
 -0.143000007      -1.28998216E-15
 -0.142000005      -1.63514787E-15
 -0.141000003      -1.31336132E-15
 -0.140000001       8.89436542E-17
 -0.138999999       2.50813211E-15
 -0.137999997       4.96066413E-15
 -0.136999995       5.44396800E-15
 -0.136000007       1.61607936E-15
 -0.135000005      -7.52763601E-15
 -0.134000003      -1.93482129E-14
 -0.133000001      -2.58242168E-14
 -0.131999999      -1.42489593E-14
 -0.130999997       2.78563624E-14
 -0.129999995       1.03227112E-13
 -0.128999993       1.93135099E-13
 -0.128000006       2.49292476E-13
 -0.127000004       1.97613220E-13
 -0.126000002      -3.87583168E-14
 -0.125000000      -4.95560732E-13
 -0.123999998      -1.11193877E-12
 -0.123000003      -1.68577988E-12
 -0.122000001      -1.87195615E-12
 -0.120999999      -1.25448068E-12
 -0.119999997       4.94255136E-13
 -0.119000003       3.38943261E-12
 -0.118000001       6.91269654E-12
 -0.116999999       9.90077898E-12
 -0.115999997       1.06611144E-11
 -0.115000002       7.39369590E-12
 -0.114000000      -1.09552092E-12
 -0.112999998      -1.45398459E-11
 -0.112000003      -3.05034296E-11
 -0.111000001      -4.41879450E-11
 -0.109999999      -4.90877096E-11
 -0.108999997      -3.86380650E-11
 -0.108000003      -8.67209082E-12
 -0.107000001       3.98956805E-11
 -0.105999999       9.90726459E-11
 -0.104999997       1.53506624E-10
 -0.104000002       1.82716661E-10
 -0.103000000       1.66019781E-10
 -0.101999998       8.94346541E-11
 -0.101000004      -4.71117798E-11
 -0.100000001      -2.24629024E-10
  -9.89999995E-02  -4.04383693E-10
  -9.79999974E-02  -5.33372846E-10
  -9.70000029E-02  -5.56078794E-10
  -9.60000008E-02  -4.30598834E-10
  -9.49999988E-02  -1.45280926E-10
  -9.39999968E-02   2.69204908E-10
  -9.30000022E-02   7.37278849E-10
  -9.20000002E-02   1.14848775E-09
  -9.09999982E-02   1.38011169E-09
  -9.00000036E-02   1.32840550E-09
  -8.90000015E-02   9.41088873E-10
  -8.79999995E-02   2.41862502E-10
  -8.69999975E-02  -6.61597499E-10
  -8.60000029E-02  -1.59129721E-09
  -8.50000009E-02  -2.33382402E-09
  -8.39999989E-02  -2.68980260E-09
  -8.29999968E-02  -2.52606269E-09
  -8.20000023E-02  -1.81638715E-09
  -8.10000002E-02  -6.58373411E-10
  -7.99999982E-02   7.40492667E-10
  -7.90000036E-02   2.10624451E-09
  -7.80000016E-02   3.16145154E-09
  -7.69999996E-02   3.69163855E-09
  -7.59999976E-02   3.59695673E-09
  -7.50000030E-02   2.91433788E-09
  -7.40000010E-02   1.80340365E-09
  -7.29999989E-02   4.99880803E-10
  -7.19999969E-02  -7.49932505E-10
  -7.10000023E-02  -1.75415982E-09
  -7.00000003E-02  -2.42023224E-09
  -6.89999983E-02  -2.76620149E-09
  -6.80000037E-02  -2.89555047E-09
  -6.70000017E-02  -2.94428482E-09
  -6.59999996E-02  -3.01821501E-09
  -6.49999976E-02  -3.14179727E-09
  -6.40000030E-02  -3.23641736E-09
  -6.30000010E-02  -3.13657611E-09
  -6.19999990E-02  -2.64005307E-09
  -6.10000007E-02  -1.57689428E-09
  -5.99999987E-02   1.24281668E-10
  -5.90000004E-02   2.39347742E-09
  -5.79999983E-02   5.01334307E-09
  -5.70000000E-02   7.65169350E-09
  -5.60000017E-02   9.92233584E-09
  -5.49999997E-02   1.14561383E-08
  -5.40000014E-02   1.19628956E-08
  -5.29999994E-02   1.12699832E-08
  -5.20000011E-02   9.33359257E-09
  -5.09999990E-02   6.22861007E-09
  -5.00000007E-02   2.12972240E-09
  -4.89999987E-02  -2.70351230E-09
  -4.80000004E-02  -7.93116772E-09
  -4.69999984E-02  -1.31305384E-08
  -4.60000001E-02  -1.77994472E-08
  -4.50000018E-02  -2.13815738E-08
  -4.39999998E-02  -2.33256223E-08
  -4.30000015E-02  -2.31779023E-08
  -4.19999994E-02  -2.06919673E-08
  -4.10000011E-02  -1.59252007E-08
  -3.99999991E-02  -9.28722876E-09
  -3.90000008E-02  -1.51227542E-09
  -3.79999988E-02   6.45315001E-09
  -3.70000005E-02   1.36296823E-08
  -3.59999985E-02   1.92094287E-08
  -3.50000001E-02   2.27289334E-08
  -3.40000018E-02   2.41574316E-08
  -3.29999998E-02   2.38683473E-08
  -3.20000015E-02   2.24962289E-08
  -3.09999995E-02   2.07185629E-08
  -2.99999993E-02   1.90294891E-08
  -2.89999992E-02   1.75802022E-08
  -2.80000009E-02   1.61442131E-08
  -2.70000007E-02   1.42279681E-08
  -2.60000005E-02   1.12996776E-08
  -2.50000004E-02   7.06647851E-09
  -2.40000002E-02   1.70719672E-09
  -2.30000000E-02  -4.02591294E-09
  -2.19999999E-02  -8.88765594E-09
  -2.09999997E-02  -1.13986012E-08
  -1.99999996E-02  -1.02195337E-08
  -1.89999994E-02  -4.53628912E-09
  -1.79999992E-02   5.66295810E-09
  -1.70000009E-02   1.95120400E-08
  -1.60000008E-02   3.54321976E-08
  -1.49999997E-02   5.15078860E-08
  -1.40000004E-02   6.59778152E-08
  -1.30000003E-02   7.77074618E-08
  -1.20000001E-02   8.65090612E-08
  -1.09999999E-02   9.32147159E-08
  -9.99999978E-03   9.94768499E-08
  -8.99999961E-03   1.07347503E-07
  -8.00000038E-03   1.18751508E-07
  -7.00000022E-03   1.34999198E-07
  -6.00000005E-03   1.56473305E-07
  -4.99999989E-03   1.82574738E-07
  -4.00000019E-03   2.11939579E-07
  -3.00000003E-03   2.42863962E-07
  -2.00000009E-03   2.73818188E-07
  -1.00000005E-03   3.03911065E-07
   0.00000000       3.33183749E-07
   1.00000005E-03   3.62664991E-07
   2.00000009E-03   3.94186600E-07
   3.00000003E-03   4.30023192E-07
   4.00000019E-03   4.72463654E-07
   4.99999989E-03   5.23432789E-07
   6.00000005E-03   5.84258771E-07
   7.00000022E-03   6.55637052E-07
   8.00000038E-03   7.37782386E-07
   8.99999961E-03   8.30712281E-07
   9.99999978E-03   9.34572142E-07
   1.09999999E-02   1.04991034E-06
   1.20000001E-02   1.17782952E-06
   1.30000003E-02   1.31998263E-06
   1.40000004E-02   1.47842388E-06
   1.49999997E-02   1.65536619E-06
   1.60000008E-02   1.85291856E-06
   1.70000009E-02   2.07287849E-06
   1.79999992E-02   2.31664035E-06
   1.89999994E-02   2.58524210E-06
   1.99999996E-02   2.87954572E-06
   2.09999997E-02   3.20050299E-06
   2.19999999E-02   3.54944632E-06
   2.30000000E-02   3.92833135E-06
   2.40000002E-02   4.33988180E-06
   2.50000004E-02   4.78760194E-06
   2.60000005E-02   5.27566817E-06
   2.70000007E-02   5.80873802E-06
   2.80000009E-02   6.39173186E-06
   2.89999992E-02   7.02965644E-06
   2.99999993E-02   7.72752264E-06
   3.09999995E-02   8.49037224E-06
   3.20000015E-02   9.32341845E-06
   3.29999998E-02   1.02322429E-05
   3.40000018E-02   1.12229891E-05
   3.50000001E-02   1.23024975E-05
   3.59999985E-02   1.34783349E-05
   3.70000005E-02   1.47587025E-05
   3.79999988E-02   1.61522512E-05
   3.90000008E-02   1.76678659E-05
   3.99999991E-02   1.93144697E-05
   4.10000011E-02   2.11009265E-05
   4.19999994E-02   2.30360456E-05
   4.30000015E-02   2.51287220E-05
   4.39999998E-02   2.73881342E-05
   4.50000018E-02   2.98239829E-05
   4.60000001E-02   3.24467073E-05
   4.69999984E-02   3.52676543E-05
   4.80000004E-02   3.82991529E-05
   4.89999987E-02   4.15545910E-05
   5.00000007E-02   4.50484367E-05
   5.09999990E-02   4.87962716E-05
   5.20000011E-02   5.28148194E-05
   5.29999994E-02   5.71219316E-05
   5.40000014E-02   6.17364931E-05
   5.49999997E-02   6.66782362E-05
   5.60000017E-02   7.19674208E-05
   5.70000000E-02   7.76244269E-05
   5.79999983E-02   8.36694308E-05
   5.90000004E-02   9.01221210E-05
   5.99999987E-02   9.70017281E-05
   6.10000007E-02   1.04327264E-04
   6.19999990E-02   1.12118061E-04
   6.30000010E-02   1.20394419E-04
   6.40000030E-02   1.29178210E-04
   6.49999976E-02   1.38493328E-04
   6.59999996E-02   1.48365652E-04
   6.70000017E-02   1.58822877E-04
   6.80000037E-02   1.69893785E-04
   6.89999983E-02   1.81607626E-04
   7.00000003E-02   1.93993445E-04
   7.10000023E-02   2.07079822E-04
   7.19999969E-02   2.20894945E-04
   7.29999989E-02   2.35467058E-04
   7.40000010E-02   2.50825076E-04
   7.50000030E-02   2.66999152E-04
   7.59999976E-02   2.84020876E-04
   7.69999996E-02   3.01923137E-04
   7.80000016E-02   3.20739433E-04
   7.90000036E-02   3.40502855E-04
   7.99999982E-02   3.61245213E-04
   8.10000002E-02   3.82996397E-04
   8.20000023E-02   4.05784260E-04
   8.29999968E-02   4.29635140E-04
   8.39999989E-02   4.54574911E-04
   8.50000009E-02   4.80630028E-04
   8.60000029E-02   5.07828605E-04
   8.69999975E-02   5.36200765E-04
   8.79999995E-02   5.65778289E-04
   8.90000015E-02   5.96593483E-04
   9.00000036E-02   6.28678303E-04
   9.09999982E-02   6.62062550E-04
   9.20000002E-02   6.96772942E-04
   9.30000022E-02   7.32833170E-04
   9.39999968E-02   7.70264014E-04
   9.49999988E-02   8.09084449E-04
   9.60000008E-02   8.49312753E-04
   9.70000029E-02   8.90967378E-04
   9.79999974E-02   9.34067473E-04
   9.89999995E-02   9.78632248E-04
  0.100000001       1.02468010E-03
  0.101000004       1.07222737E-03
  0.101999998       1.12128712E-03
  0.103000000       1.17186864E-03
  0.104000002       1.22397707E-03
  0.104999997       1.27761450E-03
  0.105999999       1.33278070E-03
  0.107000001       1.38947403E-03
  0.108000003       1.44769240E-03
  0.108999997       1.50743290E-03
  0.109999999       1.56869076E-03
  0.111000001       1.63145864E-03
  0.112000003       1.69572479E-03
  0.112999998       1.76147232E-03
  0.114000000       1.82867853E-03
  0.115000002       1.89731573E-03
  0.115999997       1.96735188E-03
  0.116999999       2.03875196E-03
  0.118000001       2.11147987E-03
  0.119000003       2.18549697E-03
  0.119999997       2.26076343E-03
  0.120999999       2.33723642E-03
  0.122000001       2.41486845E-03
  0.123000003       2.49360641E-03
  0.123999998       2.57339003E-03
  0.125000000       2.65415176E-03
  0.126000002       2.73581734E-03
  0.127000004       2.81830714E-03
  0.128000006       2.90153734E-03
  0.128999993       2.98542110E-03
  0.129999995       3.06986924E-03
  0.130999997       3.15478956E-03
  0.131999999       3.24008660E-03
  0.133000001       3.32565932E-03
  0.134000003       3.41139943E-03
  0.135000005       3.49719101E-03
  0.136000007       3.58291040E-03
  0.136999995       3.66842560E-03
  0.137999997       3.75359855E-03
  0.138999999       3.83828580E-03
  0.140000001       3.92234046E-03
  0.141000003       4.00561281E-03
  0.142000005       4.08795010E-03
  0.143000007       4.16919682E-03
  0.143999994       4.24919231E-03
  0.144999996       4.32777032E-03
  0.145999998       4.40475857E-03
  0.147000000       4.47997637E-03
  0.148000002       4.55323653E-03
  0.149000004       4.62434394E-03
  0.150000006       4.69309976E-03
  0.150999993       4.75930050E-03
  0.151999995       4.82274173E-03
  0.152999997       4.88321856E-03
  0.153999999       4.94052423E-03
  0.155000001       4.99445293E-03
  0.156000003       5.04479604E-03
  0.157000005       5.09134308E-03
  0.158000007       5.13387844E-03
  0.158999994       5.17218281E-03
  0.159999996       5.20603359E-03
  0.160999998       5.23520447E-03
  0.162000000       5.25947008E-03
  0.163000003       5.27860597E-03
  0.164000005       5.29239187E-03
  0.165000007       5.30061498E-03
  0.165999994       5.30306855E-03
  0.166999996       5.29955421E-03
  0.167999998       5.28987823E-03
  0.169000000       5.27385296E-03
  0.170000002       5.25129260E-03
  0.171000004       5.22201462E-03
  0.172000006       5.18583972E-03
  0.172999993       5.14259422E-03
  0.173999995       5.09211235E-03
  0.174999997       5.03424136E-03
  0.175999999       4.96884156E-03
  0.177000001       4.89579141E-03
  0.178000003       4.81498521E-03
  0.179000005       4.72633494E-03
  0.180000007       4.62976703E-03
  0.180999994       4.52522142E-03
  0.181999996       4.41264920E-03
  0.182999998       4.29201452E-03
  0.184000000       4.16329363E-03
  0.185000002       4.02647909E-03
  0.186000004       3.88158346E-03
  0.187000006       3.72864166E-03
  0.187999994       3.56771285E-03
  0.188999996       3.39888223E-03
  0.189999998       3.22225899E-03
  0.191000000       3.03797564E-03
  0.192000002       2.84618489E-03
  0.193000004       2.64705718E-03
  0.194000006       2.44078040E-03
  0.194999993       2.22755969E-03
  0.195999995       2.00761855E-03
  0.196999997       1.78120169E-03
  0.197999999       1.54857710E-03
  0.199000001       1.31003791E-03
  0.200000003       1.06590206E-03
  0.201000005       8.16511805E-04
  0.202000007       5.62230940E-04
  0.202999994       3.03441717E-04
  0.203999996       4.05419523E-05
  0.204999998      -2.26057309E-04
  0.206000000      -4.95932822E-04
  0.207000002      -7.68648984E-04
  0.208000004      -1.04375731E-03
  0.209000006      -1.32079492E-03
  0.209999993      -1.59928447E-03
  0.210999995      -1.87873410E-03
  0.211999997      -2.15863972E-03
  0.213000000      -2.43848818E-03
  0.214000002      -2.71775969E-03
  0.215000004      -2.99593294E-03
  0.216000006      -3.27248708E-03
  0.216999993      -3.54690407E-03
  0.217999995      -3.81866982E-03
  0.218999997      -4.08727443E-03
  0.219999999      -4.35221195E-03
  0.221000001      -4.61297994E-03
  0.222000003      -4.86908061E-03
  0.223000005      -5.12002176E-03
  0.224000007      -5.36532095E-03
  0.224999994      -5.60450647E-03
  0.225999996      -5.83712198E-03
  0.226999998      -6.06273022E-03
  0.228000000      -6.28091441E-03
  0.229000002      -6.49127923E-03
  0.230000004      -6.69345213E-03
  0.231000006      -6.88708108E-03
  0.231999993      -7.07183732E-03
  0.232999995      -7.24741258E-03
  0.233999997      -7.41352094E-03
  0.234999999      -7.56990118E-03
  0.236000001      -7.71631533E-03
  0.237000003      -7.85255432E-03
  0.238000005      -7.97843747E-03
  0.238999993      -8.09381530E-03
  0.239999995      -8.19857139E-03
  0.240999997      -8.29262007E-03
  0.241999999      -8.37590359E-03
  0.243000001      -8.44839495E-03
  0.244000003      -8.51009414E-03
  0.245000005      -8.56102444E-03
  0.246000007      -8.60123988E-03
  0.246999994      -8.63081776E-03
  0.247999996      -8.64986237E-03
  0.248999998      -8.65850598E-03
  0.250000000      -8.65690596E-03
  0.250999987      -8.64524767E-03
  0.252000004      -8.62374436E-03
  0.252999991      -8.59263167E-03
  0.254000008      -8.55216663E-03
  0.254999995      -8.50262679E-03
  0.256000012      -8.44430644E-03
  0.256999999      -8.37751664E-03
  0.257999986      -8.30258057E-03
  0.259000003      -8.21983628E-03
  0.259999990      -8.12963676E-03
  0.261000007      -8.03234614E-03
  0.261999995      -7.92833883E-03
  0.263000011      -7.81800225E-03
  0.263999999      -7.70172942E-03
  0.264999986      -7.57992081E-03
  0.266000003      -7.45298201E-03
  0.266999990      -7.32131954E-03
  0.268000007      -7.18534179E-03
  0.268999994      -7.04545574E-03
  0.270000011      -6.90206606E-03
  0.270999998      -6.75557321E-03
  0.272000015      -6.60637300E-03
  0.273000002      -6.45485427E-03
  0.273999989      -6.30140025E-03
  0.275000006      -6.14638487E-03
  0.275999993      -5.99017600E-03
  0.277000010      -5.83313173E-03
  0.277999997      -5.67560131E-03
  0.279000014      -5.51792374E-03
  0.280000001      -5.36042592E-03
  0.280999988      -5.20342262E-03
  0.282000005      -5.04721329E-03
  0.282999992      -4.89208149E-03
  0.284000009      -4.73829545E-03
  0.284999996      -4.58610570E-03
  0.286000013      -4.43574646E-03
  0.287000000      -4.28743754E-03
  0.287999988      -4.14138520E-03
  0.289000005      -3.99778318E-03
  0.289999992      -3.85681191E-03
  0.291000009      -3.71863903E-03
  0.291999996      -3.58341797E-03
  0.293000013      -3.45128519E-03
  0.294000000      -3.32235987E-03
  0.294999987      -3.19674239E-03
  0.296000004      -3.07451584E-03
  0.296999991      -2.95574730E-03
  0.298000008      -2.84049055E-03
  0.298999995      -2.72878911E-03
  0.300000012      -2.62067840E-03
  0.300999999      -2.51618726E-03
  0.301999986      -2.41533667E-03
  0.303000003      -2.31813849E-03
  0.303999990      -2.22459389E-03
  0.305000007      -2.13469053E-03
  0.305999994      -2.04840279E-03
  0.307000011      -1.96569087E-03
  0.307999998      -1.88650424E-03
  0.308999985      -1.81078399E-03
  0.310000002      -1.73846679E-03
  0.310999990      -1.66948792E-03
  0.312000006      -1.60378288E-03
  0.312999994      -1.54128706E-03
  0.314000010      -1.48193457E-03
  0.314999998      -1.42565568E-03
  0.316000015      -1.37237413E-03
  0.317000002      -1.32200611E-03
  0.317999989      -1.27445976E-03
  0.319000006      -1.22963695E-03
  0.319999993      -1.18743628E-03
  0.321000010      -1.14775647E-03
  0.321999997      -1.11049891E-03
  0.323000014      -1.07556966E-03
  0.324000001      -1.04287989E-03
  0.324999988      -1.01234403E-03
  0.326000005      -9.83878388E-04
  0.326999992      -9.57398617E-04
  0.328000009      -9.32818279E-04
  0.328999996      -9.10048548E-04
  0.330000013      -8.88998969E-04
  0.331000000      -8.69579148E-04
  0.331999987      -8.51701014E-04
  0.333000004      -8.35280342E-04
  0.333999991      -8.20237910E-04
  0.335000008      -8.06499098E-04
  0.335999995      -7.93992891E-04
  0.337000012      -7.82650604E-04
  0.338000000      -7.72404252E-04
  0.338999987      -7.63186079E-04
  0.340000004      -7.54928449E-04
  0.340999991      -7.47564947E-04
  0.342000008      -7.41031661E-04
  0.342999995      -7.35268462E-04
  0.344000012      -7.30219937E-04
  0.344999999      -7.25835445E-04
  0.345999986      -7.22068595E-04
  0.347000003      -7.18875905E-04
  0.347999990      -7.16215465E-04
  0.349000007      -7.14045949E-04
  0.349999994      -7.12326204E-04
  0.351000011      -7.11015426E-04
  0.351999998      -7.10074033E-04
  0.352999985      -7.09464774E-04
  0.354000002      -7.09153712E-04
  0.354999989      -7.09110696E-04
  0.356000006      -7.09309359E-04
  0.356999993      -7.09726417E-04
  0.358000010      -7.10340566E-04
  0.358999997      -7.11131550E-04
  0.360000014      -7.12078938E-04
  0.361000001      -7.13162182E-04
  0.361999989      -7.14360445E-04
  0.363000005      -7.15653296E-04
  0.363999993      -7.17021700E-04
  0.365000010      -7.18448602E-04
  0.365999997      -7.19919859E-04
  0.367000014      -7.21424003E-04
  0.368000001      -7.22952303E-04
  0.368999988      -7.24498066E-04
  0.370000005      -7.26055703E-04
  0.370999992      -7.27620034E-04
  0.372000009      -7.29185762E-04
  0.372999996      -7.30746833E-04
  0.374000013      -7.32296612E-04
  0.375000000      -7.33828230E-04
  0.375999987      -7.35334936E-04
  0.377000004      -7.36810791E-04
  0.377999991      -7.38250965E-04
  0.379000008      -7.39652256E-04
  0.379999995      -7.41013151E-04
  0.381000012      -7.42333301E-04
  0.381999999      -7.43613346E-04
  0.382999986      -7.44854100E-04
  0.384000003      -7.46056088E-04
  0.384999990      -7.47219077E-04
  0.386000007      -7.48342252E-04
  0.386999995      -7.49424042E-04
  0.388000011      -7.50462816E-04
  0.388999999      -7.51457352E-04
  0.389999986      -7.52407068E-04
  0.391000003      -7.53312430E-04
  0.391999990      -7.54174602E-04
  0.393000007      -7.54995097E-04
  0.393999994      -7.55775138E-04
  0.395000011      -7.56515714E-04
  0.395999998      -7.57216942E-04
  0.397000015      -7.57878472E-04
  0.398000002      -7.58500188E-04
  0.398999989      -7.59082555E-04
  0.400000006      -7.59627437E-04
  0.400999993      -7.60138035E-04
  0.402000010      -7.60618714E-04
  0.402999997      -7.61074014E-04
  0.404000014      -7.61507777E-04
  0.405000001      -7.61921925E-04
  0.405999988      -7.62316165E-04
  0.407000005      -7.62687880E-04
  0.407999992      -7.63033167E-04
  0.409000009      -7.63348246E-04
  0.409999996      -7.63631077E-04
  0.411000013      -7.63882417E-04
  0.412000000      -7.64106400E-04
  0.412999988      -7.64309836E-04
  0.414000005      -7.64500932E-04
  0.414999992      -7.64687138E-04
  0.416000009      -7.64873228E-04
  0.416999996      -7.65060249E-04
  0.418000013      -7.65245408E-04
  0.419000000      -7.65423232E-04
  0.419999987      -7.65587436E-04
  0.421000004      -7.65733595E-04
  0.421999991      -7.65860779E-04
  0.423000008      -7.65972538E-04
  0.423999995      -7.66076497E-04
  0.425000012      -7.66182435E-04
  0.425999999      -7.66299956E-04
  0.426999986      -7.66435754E-04
  0.428000003      -7.66591867E-04
  0.428999990      -7.66765559E-04
  0.430000007      -7.66950019E-04
  0.430999994      -7.67137157E-04
  0.432000011      -7.67319871E-04
  0.432999998      -7.67494552E-04
  0.433999985      -7.67662306E-04
  0.435000002      -7.67828431E-04
  0.435999990      -7.68000493E-04
  0.437000006      -7.68185942E-04
  0.437999994      -7.68389204E-04
  0.439000010      -7.68610276E-04
  0.439999998      -7.68844387E-04
  0.441000015      -7.69083272E-04
  0.442000002      -7.69317965E-04
  0.442999989      -7.69541366E-04
  0.444000006      -7.69750681E-04
  0.444999993      -7.69948296E-04
  0.446000010      -7.70140789E-04
  0.446999997      -7.70336774E-04
  0.448000014      -7.70543702E-04
  0.449000001      -7.70765007E-04
  0.449999988      -7.70998304E-04
  0.451000005      -7.71235558E-04
  0.451999992      -7.71464664E-04
  0.453000009      -7.71672872E-04
  0.453999996      -7.71849765E-04
  0.455000013      -7.71990221E-04
  0.456000000      -7.72095285E-04
  0.456999987      -7.72171596E-04
  0.458000004      -7.72228872E-04
  0.458999991      -7.72276311E-04
  0.460000008      -7.72319676E-04
  0.460999995      -7.72359024E-04
  0.462000012      -7.72388710E-04
  0.463000000      -7.72398838E-04
  0.463999987      -7.72378233E-04
  0.465000004      -7.72317580E-04
  0.465999991      -7.72212225E-04
  0.467000008      -7.72063097E-04
  0.467999995      -7.71876308E-04
  0.469000012      -7.71660765E-04
  0.469999999      -7.71425373E-04
  0.470999986      -7.71176012E-04
  0.472000003      -7.70913728E-04
  0.472999990      -7.70634739E-04
  0.474000007      -7.70331651E-04
  0.474999994      -7.69996026E-04
  0.476000011      -7.69621460E-04
  0.476999998      -7.69205566E-04
  0.477999985      -7.68750906E-04
  0.479000002      -7.68264465E-04
  0.479999989      -7.67755380E-04
  0.481000006      -7.67232443E-04
  0.481999993      -7.66701763E-04
  0.483000010      -7.66165147E-04
  0.483999997      -7.65620265E-04
  0.485000014      -7.65061995E-04
  0.486000001      -7.64484750E-04
  0.486999989      -7.63884920E-04
  0.488000005      -7.63262564E-04
  0.488999993      -7.62621989E-04
  0.490000010      -7.61970761E-04
  0.490999997      -7.61317788E-04
  0.492000014      -7.60670693E-04
  0.493000001      -7.60033843E-04
  0.493999988      -7.59407412E-04
  0.495000005      -7.58787501E-04
  0.495999992      -7.58167938E-04
  0.497000009      -7.57542555E-04
  0.497999996      -7.56907859E-04
  0.499000013      -7.56264664E-04
  0.500000000      -7.55618443E-04
  0.500999987      -7.54978624E-04
  0.501999974      -7.54356093E-04
  0.503000021      -7.53760862E-04
  0.504000008      -7.53199391E-04
  0.504999995      -7.52673310E-04
  0.505999982      -7.52179185E-04
  0.507000029      -7.51709798E-04
  0.508000016      -7.51256477E-04
  0.509000003      -7.50811654E-04
  0.509999990      -7.50371197E-04
  0.510999978      -7.49935280E-04
  0.512000024      -7.49508559E-04
  0.513000011      -7.49098428E-04
  0.513999999      -7.48713152E-04
  0.514999986      -7.48359191E-04
  0.515999973      -7.48039572E-04
  0.517000020      -7.47753074E-04
  0.518000007      -7.47494400E-04
  0.518999994      -7.47256039E-04
  0.519999981      -7.47030252E-04
  0.521000028      -7.46811216E-04
  0.522000015      -7.46596721E-04
  0.523000002      -7.46388396E-04
  0.523999989      -7.46191246E-04
  0.524999976      -7.46011792E-04
  0.526000023      -7.45856203E-04
  0.527000010      -7.45728321E-04
  0.527999997      -7.45628146E-04
  0.528999984      -7.45552068E-04
  0.529999971      -7.45493337E-04
  0.531000018      -7.45443976E-04
  0.532000005      -7.45396828E-04
  0.532999992      -7.45347177E-04
  0.533999979      -7.45293743E-04
  0.535000026      -7.45238678E-04
  0.536000013      -7.45186175E-04
  0.537000000      -7.45141006E-04
  0.537999988      -7.45106256E-04
  0.538999975      -7.45082099E-04
  0.540000021      -7.45065219E-04
  0.541000009      -7.45049270E-04
  0.541999996      -7.45026453E-04
  0.542999983      -7.44989491E-04
  0.544000030      -7.44933786E-04
  0.545000017      -7.44858698E-04
  0.546000004      -7.44767429E-04
  0.546999991      -7.44666322E-04
  0.547999978      -7.44562771E-04
  0.549000025      -7.44462828E-04
  0.550000012      -7.44369405E-04
  0.550999999      -7.44281104E-04
  0.551999986      -7.44192337E-04
  0.552999973      -7.44094839E-04
  0.554000020      -7.43979821E-04
  0.555000007      -7.43840588E-04
  0.555999994      -7.43674638E-04
  0.556999981      -7.43484357E-04
  0.558000028      -7.43276381E-04
  0.559000015      -7.43060024E-04
  0.560000002      -7.42844481E-04
  0.560999990      -7.42636214E-04
  0.561999977      -7.42437085E-04
  0.563000023      -7.42243719E-04
  0.564000010      -7.42048491E-04
  0.564999998      -7.41841621E-04
  0.565999985      -7.41613971E-04
  0.566999972      -7.41359952E-04
  0.568000019      -7.41078984E-04
  0.569000006      -7.40776013E-04
  0.569999993      -7.40460062E-04
  0.570999980      -7.40142423E-04
  0.572000027      -7.39833282E-04
  0.573000014      -7.39539333E-04
  0.574000001      -7.39262381E-04
  0.574999988      -7.38999282E-04
  0.575999975      -7.38742936E-04
  0.577000022      -7.38484727E-04
  0.578000009      -7.38217030E-04
  0.578999996      -7.37935363E-04
  0.579999983      -7.37639552E-04
  0.580999970      -7.37333379E-04
  0.582000017      -7.37023249E-04
  0.583000004      -7.36715971E-04
  0.583999991      -7.36417132E-04
  0.584999979      -7.36129237E-04
  0.586000025      -7.35851238E-04
  0.587000012      -7.35579291E-04
  0.588000000      -7.35308276E-04
  0.588999987      -7.35033536E-04
  0.589999974      -7.34752335E-04
  0.591000021      -7.34464847E-04
  0.592000008      -7.34174100E-04
  0.592999995      -7.33884808E-04
  0.593999982      -7.33602035E-04
  0.595000029      -7.33329682E-04
  0.596000016      -7.33069319E-04
  0.597000003      -7.32819783E-04
  0.597999990      -7.32577872E-04
  0.598999977      -7.32339453E-04
  0.600000024      -7.32100918E-04
  0.601000011      -7.31859996E-04
  0.601999998      -7.31616572E-04
  0.602999985      -7.31372449E-04
  0.603999972      -7.31130422E-04
  0.605000019      -7.30893400E-04
  0.606000006      -7.30663422E-04
  0.606999993      -7.30440661E-04
  0.607999980      -7.30223896E-04
  0.609000027      -7.30010855E-04
  0.610000014      -7.29799096E-04
  0.611000001      -7.29587104E-04
  0.611999989      -7.29374879E-04
  0.612999976      -7.29163934E-04
  0.614000022      -7.28957180E-04
  0.615000010      -7.28757936E-04
  0.615999997      -7.28569168E-04
  0.616999984      -7.28392974E-04
  0.617999971      -7.28229876E-04
  0.619000018      -7.28079234E-04
  0.620000005      -7.27939419E-04
  0.620999992      -7.27808394E-04
  0.621999979      -7.27684295E-04
  0.623000026      -7.27565668E-04
  0.624000013      -7.27451639E-04
  0.625000000      -7.27341569E-04
  0.625999987      -7.27235165E-04
  0.626999974      -7.27132137E-04
  0.628000021      -7.27032253E-04
  0.629000008      -7.26935512E-04
  0.629999995      -7.26842380E-04
  0.630999982      -7.26753788E-04
  0.632000029      -7.26670900E-04
  0.633000016      -7.26594706E-04
  0.634000003      -7.26525439E-04
  0.634999990      -7.26462342E-04
  0.635999978      -7.26403203E-04
  0.637000024      -7.26344995E-04
  0.638000011      -7.26284285E-04
  0.638999999      -7.26218568E-04
  0.639999986      -7.26146915E-04
  0.640999973      -7.26070430E-04
  0.642000020      -7.25992082E-04
  0.643000007      -7.25915947E-04
  0.643999994      -7.25845632E-04
  0.644999981      -7.25782942E-04
  0.646000028      -7.25726888E-04
  0.647000015      -7.25673512E-04
  0.648000002      -7.25616817E-04
  0.648999989      -7.25550170E-04
  0.649999976      -7.25468562E-04
  0.651000023      -7.25370308E-04
  0.652000010      -7.25257793E-04
  0.652999997      -7.25137244E-04
  0.653999984      -7.25016929E-04
  0.654999971      -7.24904879E-04
  0.656000018      -7.24806159E-04
  0.657000005      -7.24721176E-04
  0.657999992      -7.24645040E-04
  0.658999979      -7.24568672E-04
  0.660000026      -7.24481128E-04
  0.661000013      -7.24372629E-04
  0.662000000      -7.24237587E-04
  0.662999988      -7.24076061E-04
  0.663999975      -7.23894162E-04
  0.665000021      -7.23702251E-04
  0.666000009      -7.23512319E-04
  0.666999996      -7.23334495E-04
  0.667999983      -7.23174482E-04
  0.669000030      -7.23032048E-04
  0.670000017      -7.22901488E-04
  0.671000004      -7.22773315E-04
  0.671999991      -7.22637633E-04
  0.672999978      -7.22486700E-04
  0.674000025      -7.22317549E-04
  0.675000012      -7.22132507E-04
  0.675999999      -7.21938501E-04
  0.676999986      -7.21744727E-04
  0.677999973      -7.21560093E-04
  0.679000020      -7.21390476E-04
  0.680000007      -7.21237040E-04
  0.680999994      -7.21096294E-04
  0.681999981      -7.20961310E-04
  0.683000028      -7.20823824E-04
  0.684000015      -7.20676733E-04
  0.685000002      -7.20516138E-04
  0.685999990      -7.20342214E-04
  0.686999977      -7.20159092E-04
  0.688000023      -7.19973410E-04
  0.689000010      -7.19792268E-04
  0.689999998      -7.19621312E-04
  0.690999985      -7.19463394E-04
  0.691999972      -7.19318166E-04
  0.693000019      -7.19182484E-04
  0.694000006      -7.19051692E-04
  0.694999993      -7.18921190E-04
  0.695999980      -7.18787895E-04