 -0.159999996       0.00000000    
 -0.158999994       0.00000000    
 -0.158000007       0.00000000    
 -0.157000005       0.00000000    
 -0.156000003      -5.94802087E-17
 -0.155000001      -3.66498980E-16
 -0.153999999      -1.05486095E-15
 -0.152999997      -1.52427698E-15
 -0.151999995       4.47661095E-16
 -0.150999993       8.63200011E-15
 -0.150000006       2.56940499E-14
 -0.149000004       4.73098157E-14
 -0.148000002       5.51538490E-14
 -0.147000000       1.43320668E-14
 -0.145999998      -1.17468237E-13
 -0.144999996      -3.64743338E-13
 -0.143999994      -6.97167638E-13
 -0.143000007      -9.97265530E-13
 -0.142000005      -1.05859592E-12
 -0.141000003      -6.38909552E-13
 -0.140000001       4.25031782E-13
 -0.138999999       2.06698222E-12
 -0.137999997       3.86757163E-12
 -0.136999995       5.04139308E-12
 -0.136000007       4.60561493E-12
 -0.135000005       1.74376073E-12
 -0.134000003      -3.71339114E-12
 -0.133000001      -1.08627283E-11
 -0.131999999      -1.75849266E-11
 -0.130999997      -2.08746024E-11
 -0.129999995      -1.77022511E-11
 -0.128999993      -6.25271059E-12
 -0.128000006       1.28370040E-11
 -0.127000004       3.57524080E-11
 -0.126000002       5.57611873E-11
 -0.125000000       6.46797130E-11
 -0.123999998       5.53519383E-11
 -0.123000003       2.44924289E-11
 -0.122000001      -2.50671237E-11
 -0.120999999      -8.36955436E-11
 -0.119999997      -1.36439221E-10
 -0.119000003      -1.66569467E-10
 -0.118000001      -1.60328847E-10
 -0.116999999      -1.11424717E-10
 -0.115999997      -2.37151947E-11
 -0.115000002       8.89662718E-11
 -0.114000000       2.05906986E-10
 -0.112999998       3.04450465E-10
 -0.112000003       3.64887454E-10
 -0.111000001       3.73383185E-10
 -0.109999999       3.21923238E-10
 -0.108999997       2.05863410E-10
 -0.108000003       2.13389740E-11
 -0.107000001      -2.34320313E-10
 -0.105999999      -5.56642066E-10
 -0.104999997      -9.22364518E-10
 -0.104000002      -1.27551791E-09
 -0.103000000      -1.51820445E-09
 -0.101999998      -1.51483115E-09
 -0.101000004      -1.11701715E-09
 -0.100000001      -2.10873402E-10
  -9.89999995E-02   1.22040655E-09
  -9.79999974E-02   3.03535663E-09
  -9.70000029E-02   4.89820406E-09
  -9.60000008E-02   6.29255004E-09
  -9.49999988E-02   6.60141497E-09
  -9.39999968E-02   5.25366817E-09
  -9.30000022E-02   1.91457494E-09
  -9.20000002E-02  -3.32380679E-09
  -9.09999982E-02  -9.81091830E-09
  -9.00000036E-02  -1.63229661E-08
  -8.90000015E-02  -2.12049613E-08
  -8.79999995E-02  -2.26738806E-08
  -8.69999975E-02  -1.92418330E-08
  -8.60000029E-02  -1.01741859E-08
  -8.50000009E-02   4.13140411E-09
  -8.39999989E-02   2.19616645E-08
  -8.29999968E-02   4.03871816E-08
  -8.20000023E-02   5.56729383E-08
  -8.10000002E-02   6.39517168E-08
  -7.99999982E-02   6.20368681E-08
  -7.90000036E-02   4.81972116E-08
  -7.80000016E-02   2.27027375E-08
  -7.69999996E-02  -1.20167138E-08
  -7.59999976E-02  -5.16797272E-08
  -7.50000030E-02  -9.09024749E-08
  -7.40000010E-02  -1.24253901E-07
  -7.29999989E-02  -1.47398268E-07
  -7.19999969E-02  -1.58071387E-07
  -7.10000023E-02  -1.56662480E-07
  -7.00000003E-02  -1.46255871E-07
  -6.89999983E-02  -1.32108909E-07
  -6.80000037E-02  -1.20672240E-07
  -6.70000017E-02  -1.18366849E-07
  -6.59999996E-02  -1.30388244E-07
  -6.49999976E-02  -1.59800109E-07
  -6.40000030E-02  -2.07108442E-07
  -6.30000010E-02  -2.70391382E-07
  -6.19999990E-02  -3.45930005E-07
  -6.10000007E-02  -4.29172985E-07
  -5.99999987E-02  -5.15802128E-07
  -5.90000004E-02  -6.02658474E-07
  -5.79999983E-02  -6.88342652E-07
  -5.70000000E-02  -7.73394845E-07
  -5.60000017E-02  -8.60071509E-07
  -5.49999997E-02  -9.51829747E-07
  -5.40000014E-02  -1.05268953E-06
  -5.29999994E-02  -1.16665160E-06
  -5.20000011E-02  -1.29731336E-06
  -5.09999990E-02  -1.44774947E-06
  -5.00000007E-02  -1.62064532E-06
  -4.89999987E-02  -1.81859969E-06
  -4.80000004E-02  -2.04447178E-06
  -4.69999984E-02  -2.30164869E-06
  -4.60000001E-02  -2.59413991E-06
  -4.50000018E-02  -2.92646655E-06
  -4.39999998E-02  -3.30337684E-06
  -4.30000015E-02  -3.72947306E-06
  -4.19999994E-02  -4.20886545E-06
  -4.10000011E-02  -4.74496846E-06
  -3.99999991E-02  -5.34052469E-06
  -3.90000008E-02  -5.99789109E-06
  -3.79999988E-02  -6.71956332E-06
  -3.70000005E-02  -7.50886466E-06
  -3.59999985E-02  -8.37068183E-06
  -3.50000001E-02  -9.31212162E-06
  -3.40000018E-02  -1.03429775E-05
  -3.29999998E-02  -1.14759077E-05
  -3.20000015E-02  -1.27263065E-05
  -3.09999995E-02  -1.41118671E-05
  -2.99999993E-02  -1.56519181E-05
  -2.89999992E-02  -1.73666176E-05
  -2.80000009E-02  -1.92761363E-05
  -2.70000007E-02  -2.13999720E-05
  -2.60000005E-02  -2.37564527E-05
  -2.50000004E-02  -2.63625570E-05
  -2.40000002E-02  -2.92340610E-05
  -2.30000000E-02  -3.23860004E-05
  -2.19999999E-02  -3.58334437E-05
  -2.09999997E-02  -3.95924726E-05
  -1.99999996E-02  -4.36812952E-05
  -1.89999994E-02  -4.81213938E-05
  -1.79999992E-02  -5.29385798E-05
  -1.70000009E-02  -5.81638378E-05
  -1.60000008E-02  -6.38338825E-05
  -1.49999997E-02  -6.99912853E-05
  -1.40000004E-02  -7.66841767E-05
  -1.30000003E-02  -8.39654895E-05
  -1.20000001E-02  -9.18918449E-05
  -1.09999999E-02  -1.00522171E-04
  -9.99999978E-03  -1.09916342E-04
  -8.99999961E-03  -1.20133984E-04
  -8.00000038E-03  -1.31233799E-04
  -7.00000022E-03  -1.43273472E-04
  -6.00000005E-03  -1.56310271E-04
  -4.99999989E-03  -1.70402403E-04
  -4.00000019E-03  -1.85610741E-04
  -3.00000003E-03  -2.02000767E-04
  -2.00000009E-03  -2.19644353E-04
  -1.00000005E-03  -2.38621040E-04
   0.00000000      -2.59018561E-04
   1.00000005E-03  -2.80932698E-04
   2.00000009E-03  -3.04466259E-04
   3.00000003E-03  -3.29727773E-04
   4.00000019E-03  -3.56829929E-04
   4.99999989E-03  -3.85888357E-04
   6.00000005E-03  -4.17020725E-04
   7.00000022E-03  -4.50346648E-04
   8.00000038E-03  -4.85988159E-04
   8.99999961E-03  -5.24070463E-04
   9.99999978E-03  -5.64723101E-04
   1.09999999E-02  -6.08080591E-04
   1.20000001E-02  -6.54283271E-04
   1.30000003E-02  -7.03477184E-04
   1.40000004E-02  -7.55813846E-04
   1.49999997E-02  -8.11449718E-04
   1.60000008E-02  -8.70545511E-04
   1.70000009E-02  -9.33265488E-04
   1.79999992E-02  -9.99777345E-04
   1.89999994E-02  -1.07025250E-03
   1.99999996E-02  -1.14486553E-03
   2.09999997E-02  -1.22379523E-03
   2.19999999E-02  -1.30722439E-03
   2.30000000E-02  -1.39533973E-03
   2.40000002E-02  -1.48833112E-03
   2.50000004E-02  -1.58639112E-03
   2.60000005E-02  -1.68971380E-03
   2.70000007E-02  -1.79849414E-03
   2.80000009E-02  -1.91292644E-03
   2.89999992E-02  -2.03320477E-03
   2.99999993E-02  -2.15952285E-03
   3.09999995E-02  -2.29207380E-03
   3.20000015E-02  -2.43105064E-03
   3.29999998E-02  -2.57664733E-03
   3.40000018E-02  -2.72905710E-03
   3.50000001E-02  -2.88847368E-03
   3.59999985E-02  -3.05508869E-03
   3.70000005E-02  -3.22909094E-03
   3.79999988E-02  -3.41066509E-03
   3.90000008E-02  -3.59998853E-03
   3.99999991E-02  -3.79723101E-03
   4.10000011E-02  -4.00255341E-03
   4.19999994E-02  -4.21610661E-03
   4.30000015E-02  -4.43803146E-03
   4.39999998E-02  -4.66846023E-03
   4.50000018E-02  -4.90751490E-03
   4.60000001E-02  -5.15530957E-03
   4.69999984E-02  -5.41194947E-03
   4.80000004E-02  -5.67753054E-03
   4.89999987E-02  -5.95213985E-03
   5.00000007E-02  -6.23585237E-03
   5.09999990E-02  -6.52873283E-03
   5.20000011E-02  -6.83083059E-03
   5.29999994E-02  -7.14218104E-03
   5.40000014E-02  -7.46280095E-03
   5.49999997E-02  -7.79268984E-03
   5.60000017E-02  -8.13182443E-03
   5.70000000E-02  -8.48016236E-03
   5.79999983E-02  -8.83763842E-03
   5.90000004E-02  -9.20416508E-03
   5.99999987E-02  -9.57963243E-03
   6.10000007E-02  -9.96390730E-03
   6.19999990E-02  -1.03568360E-02
   6.30000010E-02  -1.07582435E-02
   6.40000030E-02  -1.11679351E-02
   6.49999976E-02  -1.15856957E-02
   6.59999996E-02  -1.20112877E-02
   6.70000017E-02  -1.24444542E-02
   6.80000037E-02  -1.28849167E-02
   6.89999983E-02  -1.33323716E-02
   7.00000003E-02  -1.37864938E-02
   7.10000023E-02  -1.42469322E-02
   7.19999969E-02  -1.47133116E-02
   7.29999989E-02  -1.51852285E-02
   7.40000010E-02  -1.56622566E-02
   7.50000030E-02  -1.61439404E-02
   7.59999976E-02  -1.66298039E-02
   7.69999996E-02  -1.71193425E-02
   7.80000016E-02  -1.76120270E-02
   7.90000036E-02  -1.81073118E-02
   7.99999982E-02  -1.86046269E-02
   8.10000002E-02  -1.91033781E-02
   8.20000023E-02  -1.96029525E-02
   8.29999968E-02  -2.01027207E-02
   8.39999989E-02  -2.06020344E-02
   8.50000009E-02  -2.11002268E-02
   8.60000029E-02  -2.15966199E-02
   8.69999975E-02  -2.20905207E-02
   8.79999995E-02  -2.25812215E-02
   8.90000015E-02  -2.30680089E-02
   9.00000036E-02  -2.35501546E-02
   9.09999982E-02  -2.40269266E-02
   9.20000002E-02  -2.44975816E-02
   9.30000022E-02  -2.49613672E-02
   9.39999968E-02  -2.54175290E-02
   9.49999988E-02  -2.58653034E-02
   9.60000008E-02  -2.63039283E-02
   9.70000029E-02  -2.67326403E-02
   9.79999974E-02  -2.71506831E-02
   9.89999995E-02  -2.75573023E-02
  0.100000001      -2.79517546E-02
  0.101000004      -2.83333100E-02
  0.101999998      -2.87012532E-02
  0.103000000      -2.90548820E-02
  0.104000002      -2.93935146E-02
  0.104999997      -2.97164861E-02
  0.105999999      -3.00231576E-02
  0.107000001      -3.03129070E-02
  0.108000003      -3.05851400E-02
  0.108999997      -3.08392849E-02
  0.109999999      -3.10748015E-02
  0.111000001      -3.12911831E-02
  0.112000003      -3.14879529E-02
  0.112999998      -3.16646695E-02
  0.114000000      -3.18209305E-02
  0.115000002      -3.19563784E-02
  0.115999997      -3.20706964E-02
  0.116999999      -3.21636051E-02
  0.118000001      -3.22348773E-02
  0.119000003      -3.22843269E-02
  0.119999997      -3.23118195E-02
  0.120999999      -3.23172584E-02
  0.122000001      -3.23006026E-02
  0.123000003      -3.22618559E-02
  0.123999998      -3.22010778E-02
  0.125000000      -3.21183652E-02
  0.126000002      -3.20138782E-02
  0.127000004      -3.18878219E-02
  0.128000006      -3.17404494E-02
  0.128999993      -3.15720737E-02
  0.129999995      -3.13830525E-02
  0.130999997      -3.11737899E-02
  0.131999999      -3.09447404E-02
  0.133000001      -3.06964051E-02
  0.134000003      -3.04293316E-02
  0.135000005      -3.01441085E-02
  0.136000007      -2.98413709E-02
  0.136999995      -2.95217894E-02
  0.137999997      -2.91860774E-02
  0.138999999      -2.88349818E-02
  0.140000001      -2.84692869E-02
  0.141000003      -2.80898139E-02
  0.142000005      -2.76974104E-02
  0.143000007      -2.72929501E-02
  0.143999994      -2.68773343E-02
  0.144999996      -2.64514852E-02
  0.145999998      -2.60163415E-02
  0.147000000      -2.55728569E-02
  0.148000002      -2.51219962E-02
  0.149000004      -2.46647373E-02
  0.150000006      -2.42020600E-02
  0.150999993      -2.37349458E-02
  0.151999995      -2.32643783E-02
  0.152999997      -2.27913372E-02
  0.153999999      -2.23167948E-02
  0.155000001      -2.18417160E-02
  0.156000003      -2.13670582E-02
  0.157000005      -2.08937582E-02
  0.158000007      -2.04227418E-02
  0.158999994      -1.99549105E-02
  0.159999996      -1.94911454E-02
  0.160999998      -1.90322977E-02
  0.162000000      -1.85791925E-02
  0.163000003      -1.81326177E-02
  0.164000005      -1.76933296E-02
  0.165000007      -1.72620509E-02
  0.165999994      -1.68394670E-02
  0.166999996      -1.64262261E-02
  0.167999998      -1.60229374E-02
  0.169000000      -1.56301707E-02
  0.170000002      -1.52484598E-02
  0.171000004      -1.48782954E-02
  0.172000006      -1.45201227E-02
  0.172999993      -1.41743449E-02
  0.173999995      -1.38413170E-02
  0.174999997      -1.35213500E-02
  0.175999999      -1.32147074E-02
  0.177000001      -1.29216081E-02
  0.178000003      -1.26422280E-02
  0.179000005      -1.23767005E-02
  0.180000007      -1.21251168E-02
  0.180999994      -1.18875308E-02
  0.181999996      -1.16639556E-02
  0.182999998      -1.14543699E-02
  0.184000000      -1.12587130E-02
  0.185000002      -1.10768871E-02
  0.186000004      -1.09087611E-02
  0.187000006      -1.07541680E-02
  0.187999994      -1.06129097E-02
  0.188999996      -1.04847578E-02
  0.189999998      -1.03694545E-02
  0.191000000      -1.02667138E-02
  0.192000002      -1.01762274E-02
  0.193000004      -1.00976648E-02
  0.194000006      -1.00306747E-02
  0.194999993      -9.97489039E-03
  0.195999995      -9.92992800E-03
  0.196999997      -9.89539362E-03
  0.197999999      -9.87088028E-03
  0.199000001      -9.85597260E-03
  0.200000003      -9.85024963E-03
  0.201000005      -9.85328294E-03
  0.202000007      -9.86463949E-03
  0.202999994      -9.88388062E-03
  0.203999996      -9.91056580E-03
  0.204999998      -9.94424988E-03
  0.206000000      -9.98448860E-03
  0.207000002      -1.00308405E-02
  0.208000004      -1.00828679E-02
  0.209000006      -1.01401405E-02
  0.209999993      -1.02022393E-02
  0.210999995      -1.02687543E-02
  0.211999997      -1.03392908E-02
  0.213000000      -1.04134651E-02
  0.214000002      -1.04909064E-02
  0.215000004      -1.05712572E-02
  0.216000006      -1.06541701E-02
  0.216999993      -1.07393088E-02
  0.217999995      -1.08263465E-02
  0.218999997      -1.09149683E-02
  0.219999999      -1.10048717E-02
  0.221000001      -1.10957678E-02
  0.222000003      -1.11873839E-02
  0.223000005      -1.12794619E-02
  0.224000007      -1.13717597E-02
  0.224999994      -1.14640519E-02
  0.225999996      -1.15561299E-02
  0.226999998      -1.16477972E-02
  0.228000000      -1.17388740E-02
  0.229000002      -1.18291937E-02
  0.230000004      -1.19186006E-02
  0.231000006      -1.20069534E-02
  0.231999993      -1.20941233E-02
  0.232999995      -1.21799922E-02
  0.233999997      -1.22644566E-02
  0.234999999      -1.23474244E-02
  0.236000001      -1.24288164E-02
  0.237000003      -1.25085637E-02
  0.238000005      -1.25866085E-02
  0.238999993      -1.26629025E-02
  0.239999995      -1.27374055E-02
  0.240999997      -1.28100850E-02
  0.241999999      -1.28809130E-02
  0.243000001      -1.29498709E-02
  0.244000003      -1.30169438E-02
  0.245000005      -1.30821243E-02
  0.246000007      -1.31454105E-02
  0.246999994      -1.32068060E-02
  0.247999996      -1.32663203E-02
  0.248999998      -1.33239655E-02
  0.250000000      -1.33797610E-02
  0.250999987      -1.34337302E-02
  0.252000004      -1.34859001E-02
  0.252999991      -1.35362996E-02
  0.254000008      -1.35849612E-02
  0.254999995      -1.36319203E-02
  0.256000012      -1.36772161E-02
  0.256999999      -1.37208868E-02
  0.257999986      -1.37629723E-02
  0.259000003      -1.38035137E-02
  0.259999990      -1.38425529E-02
  0.261000007      -1.38801318E-02
  0.261999995      -1.39162913E-02
  0.263000011      -1.39510743E-02
  0.263999999      -1.39845228E-02
  0.264999986      -1.40166786E-02
  0.266000003      -1.40475826E-02
  0.266999990      -1.40772779E-02
  0.268000007      -1.41058033E-02
  0.268999994      -1.41331982E-02
  0.270000011      -1.41595015E-02
  0.270999998      -1.41847488E-02
  0.272000015      -1.42089752E-02
  0.273000002      -1.42322145E-02
  0.273999989      -1.42545020E-02
  0.275000006      -1.42758712E-02
  0.275999993      -1.42963557E-02
  0.277000010      -1.43159907E-02
  0.277999997      -1.43348128E-02
  0.279000014      -1.43528553E-02
  0.280000001      -1.43701518E-02
  0.280999988      -1.43867349E-02
  0.282000005      -1.44026363E-02
  0.282999992      -1.44178839E-02
  0.284000009      -1.44325038E-02
  0.284999996      -1.44465221E-02
  0.286000013      -1.44599611E-02
  0.287000000      -1.44728431E-02
  0.287999988      -1.44851888E-02
  0.289000005      -1.44970194E-02
  0.289999992      -1.45083545E-02
  0.291000009      -1.45192128E-02
  0.291999996      -1.45296156E-02
  0.293000013      -1.45395808E-02
  0.294000000      -1.45491287E-02
  0.294999987      -1.45582771E-02
  0.296000004      -1.45670436E-02
  0.296999991      -1.45754470E-02
  0.298000008      -1.45835029E-02
  0.298999995      -1.45912254E-02
  0.300000012      -1.45986304E-02
  0.300999999      -1.46057289E-02
  0.301999986      -1.46125350E-02
  0.303000003      -1.46190599E-02
  0.303999990      -1.46253183E-02
  0.305000007      -1.46313235E-02
  0.305999994      -1.46370903E-02
  0.307000011      -1.46426335E-02
  0.307999998      -1.46479644E-02
  0.308999985      -1.46530950E-02
  0.310000002      -1.46580338E-02
  0.310999990      -1.46627855E-02
  0.312000006      -1.46673545E-02
  0.312999994      -1.46717448E-02
  0.314000010      -1.46759609E-02
  0.314999998      -1.46800093E-02
  0.316000015      -1.46838976E-02
  0.317000002      -1.46876369E-02
  0.317999989      -1.46912383E-02
  0.319000006      -1.46947131E-02
  0.319999993      -1.46980733E-02
  0.321000010      -1.47013273E-02
  0.321999997      -1.47044808E-02
  0.323000014      -1.47075374E-02
  0.324000001      -1.47104980E-02
  0.324999988      -1.47133637E-02
  0.326000005      -1.47161381E-02
  0.326999992      -1.47188231E-02
  0.328000009      -1.47214243E-02
  0.328999996      -1.47239482E-02
  0.330000013      -1.47264013E-02
  0.331000000      -1.47287901E-02
  0.331999987      -1.47311194E-02
  0.333000004      -1.47333909E-02
  0.333999991      -1.47356046E-02
  0.335000008      -1.47377597E-02
  0.335999995      -1.47398543E-02
  0.337000012      -1.47418873E-02
  0.338000000      -1.47438580E-02
  0.338999987      -1.47457691E-02
  0.340000004      -1.47476261E-02
  0.340999991      -1.47494348E-02
  0.342000008      -1.47512015E-02
  0.342999995      -1.47529328E-02
  0.344000012      -1.47546325E-02
  0.344999999      -1.47563042E-02
  0.345999986      -1.47579471E-02
  0.347000003      -1.47595583E-02
  0.347999990      -1.47611341E-02
  0.349000007      -1.47626689E-02
  0.349999994      -1.47641590E-02
  0.351000011      -1.47655988E-02
  0.351999998      -1.47669874E-02
  0.352999985      -1.47683257E-02
  0.354000002      -1.47696175E-02
  0.354999989      -1.47708664E-02
  0.356000006      -1.47720808E-02
  0.356999993      -1.47732673E-02
  0.358000010      -1.47744333E-02
  0.358999997      -1.47755826E-02
  0.360000014      -1.47767169E-02
  0.361000001      -1.47778355E-02
  0.361999989      -1.47789335E-02
  0.363000005      -1.47800036E-02
  0.363999993      -1.47810392E-02
  0.365000010      -1.47820339E-02
  0.365999997      -1.47829819E-02
  0.367000014      -1.47838797E-02
  0.368000001      -1.47847291E-02
  0.368999988      -1.47855310E-02
  0.370000005      -1.47862937E-02
  0.370999992      -1.47870230E-02
  0.372000009      -1.47877270E-02
  0.372999996      -1.47884134E-02
  0.374000013      -1.47890868E-02
  0.375000000      -1.47897499E-02
  0.375999987      -1.47904055E-02
  0.377000004      -1.47910528E-02
  0.377999991      -1.47916898E-02
  0.379000008      -1.47923138E-02
  0.379999995      -1.47929238E-02
  0.381000012      -1.47935152E-02
  0.381999999      -1.47940861E-02
  0.382999986      -1.47946347E-02
  0.384000003      -1.47951599E-02
  0.384999990      -1.47956628E-02
  0.386000007      -1.47961462E-02
  0.386999995      -1.47966128E-02
  0.388000011      -1.47970663E-02
  0.388999999      -1.47975078E-02
  0.389999986      -1.47979409E-02
  0.391000003      -1.47983665E-02
  0.391999990      -1.47987865E-02
  0.393000007      -1.47992000E-02
  0.393999994      -1.47996079E-02
  0.395000011      -1.48000130E-02
  0.395999998      -1.48004163E-02
  0.397000015      -1.48008224E-02
  0.398000002      -1.48012331E-02
  0.398999989      -1.48016512E-02
  0.400000006      -1.48020769E-02
  0.400999993      -1.48025099E-02
  0.402000010      -1.48029467E-02
  0.402999997      -1.48033835E-02
  0.404000014      -1.48038128E-02
  0.405000001      -1.48042291E-02
  0.405999988      -1.48046287E-02
  0.407000005      -1.48050077E-02
  0.407999992      -1.48053681E-02
  0.409000009      -1.48057137E-02
  0.409999996      -1.48060499E-02
  0.411000013      -1.48063842E-02
  0.412000000      -1.48067251E-02
  0.412999988      -1.48070771E-02
  0.414000005      -1.48074422E-02
  0.414999992      -1.48078203E-02
  0.416000009      -1.48082078E-02
  0.416999996      -1.48085970E-02
  0.418000013      -1.48089817E-02
  0.419000000      -1.48093533E-02
  0.419999987      -1.48097062E-02
  0.421000004      -1.48100378E-02
  0.421999991      -1.48103507E-02
  0.423000008      -1.48106478E-02
  0.423999995      -1.48109384E-02
  0.425000012      -1.48112290E-02
  0.425999999      -1.48115279E-02
  0.426999986      -1.48118399E-02
  0.428000003      -1.48121649E-02
  0.428999990      -1.48125021E-02
  0.430000007      -1.48128448E-02
  0.430999994      -1.48131857E-02
  0.432000011      -1.48135154E-02
  0.432999998      -1.48138283E-02
  0.433999985      -1.48141189E-02
  0.435000002      -1.48143880E-02
  0.435999990      -1.48146385E-02
  0.437000006      -1.48148751E-02
  0.437999994      -1.48151042E-02
  0.439000010      -1.48153333E-02
  0.439999998      -1.48155652E-02
  0.441000015      -1.48158045E-02
  0.442000002      -1.48160513E-02
  0.442999989      -1.48163037E-02
  0.444000006      -1.48165599E-02
  0.444999993      -1.48168160E-02
  0.446000010      -1.48170693E-02
  0.446999997      -1.48173179E-02
  0.448000014      -1.48175610E-02
  0.449000001      -1.48177985E-02
  0.449999988      -1.48180304E-02
  0.451000005      -1.48182595E-02
  0.451999992      -1.48184858E-02
  0.453000009      -1.48187103E-02
  0.453999996      -1.48189310E-02
  0.455000013      -1.48191480E-02
  0.456000000      -1.48193575E-02
  0.456999987      -1.48195578E-02
  0.458000004      -1.48197450E-02
  0.458999991      -1.48199173E-02
  0.460000008      -1.48200719E-02
  0.460999995      -1.48202097E-02
  0.462000012      -1.48203317E-02
  0.463000000      -1.48204416E-02
  0.463999987      -1.48205440E-02
  0.465000004      -1.48206465E-02
  0.465999991      -1.48207527E-02
  0.467000008      -1.48208681E-02
  0.467999995      -1.48209929E-02
  0.469000012      -1.48211271E-02
  0.469999999      -1.48212649E-02
  0.470999986      -1.48214009E-02
  0.472000003      -1.48215275E-02
  0.472999990      -1.48216365E-02
  0.474000007      -1.48217231E-02
  0.474999994      -1.48217864E-02
  0.476000011      -1.48218274E-02
  0.476999998      -1.48218507E-02
  0.477999985      -1.48218628E-02
  0.479000002      -1.48218693E-02
  0.479999989      -1.48218777E-02
  0.481000006      -1.48218907E-02
  0.481999993      -1.48219084E-02
  0.483000010      -1.48219299E-02
  0.483999997      -1.48219494E-02
  0.485000014      -1.48219625E-02
  0.486000001      -1.48219634E-02
  0.486999989      -1.48219476E-02
  0.488000005      -1.48219150E-02
  0.488999993      -1.48218675E-02
  0.490000010      -1.48218088E-02
  0.490999997      -1.48217482E-02
  0.492000014      -1.48216942E-02
  0.493000001      -1.48216560E-02
  0.493999988      -1.48216411E-02
  0.495000005      -1.48216560E-02
  0.495999992      -1.48216998E-02
  0.497000009      -1.48217697E-02
  0.497999996      -1.48218572E-02
  0.499000013      -1.48219522E-02
  0.500000000      -1.48220435E-02
  0.500999987      -1.48221189E-02
  0.501999974      -1.48221701E-02
  0.503000021      -1.48221934E-02
  0.504000008      -1.48221897E-02
  0.504999995      -1.48221636E-02
  0.505999982      -1.48221245E-02
  0.507000029      -1.48220817E-02
  0.508000016      -1.48220463E-02
  0.509000003      -1.48220276E-02
  0.509999990      -1.48220304E-02
  0.510999978      -1.48220593E-02
  0.512000024      -1.48221143E-02
  0.513000011      -1.48221962E-02
  0.513999999      -1.48222996E-02
  0.514999986      -1.48224197E-02
  0.515999973      -1.48225529E-02
  0.517000020      -1.48226935E-02
  0.518000007      -1.48228370E-02
  0.518999994      -1.48229785E-02
  0.519999981      -1.48231145E-02
  0.521000028      -1.48232412E-02
  0.522000015      -1.48233566E-02
  0.523000002      -1.48234619E-02
  0.523999989      -1.48235587E-02
  0.524999976      -1.48236509E-02
  0.526000023      -1.48237403E-02
  0.527000010      -1.48238316E-02
  0.527999997      -1.48239257E-02
  0.528999984      -1.48240253E-02
  0.529999971      -1.48241306E-02
  0.531000018      -1.48242395E-02
  0.532000005      -1.48243522E-02
  0.532999992      -1.48244677E-02
  0.533999979      -1.48245869E-02
  0.535000026      -1.48247136E-02
  0.536000013      -1.48248496E-02
  0.537000000      -1.48249995E-02
  0.537999988      -1.48251662E-02
  0.538999975      -1.48253497E-02
  0.540000021      -1.48255490E-02
  0.541000009      -1.48257595E-02
  0.541999996      -1.48259755E-02
  0.542999983      -1.48261907E-02
  0.544000030      -1.48263993E-02
  0.545000017      -1.48265986E-02
  0.546000004      -1.48267858E-02
  0.546999991      -1.48269637E-02
  0.547999978      -1.48271360E-02
  0.549000025      -1.48273064E-02
  0.550000012      -1.48274805E-02
  0.550999999      -1.48276594E-02
  0.551999986      -1.48278438E-02
  0.552999973      -1.48280319E-02
  0.554000020      -1.48282200E-02
  0.555000007      -1.48284053E-02
  0.555999994      -1.48285870E-02
  0.556999981      -1.48287639E-02
  0.558000028      -1.48289390E-02
  0.559000015      -1.48291159E-02
  0.560000002      -1.48292985E-02
  0.560999990      -1.48294922E-02
  0.561999977      -1.48296980E-02
  0.563000023      -1.48299150E-02
  0.564000010      -1.48301413E-02
  0.564999998      -1.48303714E-02
  0.565999985      -1.48305995E-02
  0.566999972      -1.48308184E-02
  0.568000019      -1.48310252E-02
  0.569000006      -1.48312161E-02
  0.569999993      -1.48313921E-02
  0.570999980      -1.48315551E-02
  0.572000027      -1.48317106E-02
  0.573000014      -1.48318633E-02
  0.574000001      -1.48320179E-02
  0.574999988      -1.48321763E-02
  0.575999975      -1.48323383E-02
  0.577000022      -1.48325041E-02
  0.578000009      -1.48326708E-02
  0.578999996      -1.48328356E-02
  0.579999983      -1.48329940E-02
  0.580999970      -1.48331458E-02
  0.582000017      -1.48332911E-02
  0.583000004      -1.48334308E-02
  0.583999991      -1.48335686E-02
  0.584999979      -1.48337064E-02
  0.586000025      -1.48338480E-02
  0.587000012      -1.48339933E-02
  0.588000000      -1.48341423E-02
  0.588999987      -1.48342941E-02
  0.589999974      -1.48344459E-02
  0.591000021      -1.48345949E-02
  0.592000008      -1.48347402E-02
  0.592999995      -1.48348799E-02
  0.593999982      -1.48350168E-02
  0.595000029      -1.48351537E-02
  0.596000016      -1.48352962E-02
  0.597000003      -1.48354471E-02
  0.597999990      -1.48356110E-02
  0.598999977      -1.48357898E-02
  0.600000024      -1.48359826E-02
  0.601000011      -1.48361865E-02
  0.601999998      -1.48363961E-02
  0.602999985      -1.48366066E-02
  0.603999972      -1.48368124E-02
  0.605000019      -1.48370089E-02
  0.606000006      -1.48371933E-02
  0.606999993      -1.48373647E-02
  0.607999980      -1.48375249E-02
  0.609000027      -1.48376785E-02
  0.610000014      -1.48378303E-02
  0.611000001      -1.48379849E-02
  0.611999989      -1.48381488E-02
  0.612999976      -1.48383249E-02
  0.614000022      -1.48385158E-02
  0.615000010      -1.48387244E-02
  0.615999997      -1.48389498E-02
  0.616999984      -1.48391873E-02
  0.617999971      -1.48394341E-02
  0.619000018      -1.48396827E-02
  0.620000005      -1.48399277E-02
  0.620999992      -1.48401614E-02
  0.621999979      -1.48403803E-02
  0.623000026      -1.48405796E-02
  0.624000013      -1.48407603E-02
  0.625000000      -1.48409251E-02
  0.625999987      -1.48410797E-02
  0.626999974      -1.48412324E-02
  0.628000021      -1.48413898E-02
  0.629000008      -1.48415584E-02
  0.629999995      -1.48417419E-02
  0.630999982      -1.48419403E-02
  0.632000029      -1.48421489E-02
  0.633000016      -1.48423603E-02
  0.634000003      -1.48425680E-02
  0.634999990      -1.48427635E-02
  0.635999978      -1.48429424E-02
  0.637000024      -1.48431035E-02
  0.638000011      -1.48432497E-02
  0.638999999      -1.48433885E-02
  0.639999986      -1.48435263E-02
  0.640999973      -1.48436716E-02
  0.642000020      -1.48438290E-02
  0.643000007      -1.48439994E-02
  0.643999994      -1.48441810E-02
  0.644999981      -1.48443654E-02
  0.646000028      -1.48445442E-02
  0.647000015      -1.48447081E-02
  0.648000002      -1.48448506E-02
  0.648999989      -1.48449680E-02
  0.649999976      -1.48450593E-02
  0.651000023      -1.48451282E-02
  0.652000010      -1.48451813E-02
  0.652999997      -1.48452250E-02
  0.653999984      -1.48452669E-02
  0.654999971      -1.48453116E-02
  0.656000018      -1.48453619E-02
  0.657000005      -1.48454178E-02
  0.657999992      -1.48454793E-02
  0.658999979      -1.48455445E-02
  0.660000026      -1.48456087E-02
  0.661000013      -1.48456702E-02
  0.662000000      -1.48457261E-02
  0.662999988      -1.48457745E-02
  0.663999975      -1.48458127E-02
  0.665000021      -1.48458388E-02
  0.666000009      -1.48458509E-02
  0.666999996      -1.48458472E-02
  0.667999983      -1.48458267E-02
  0.669000030      -1.48457885E-02
  0.670000017      -1.48457317E-02
  0.671000004      -1.48456572E-02
  0.671999991      -1.48455640E-02
  0.672999978      -1.48454523E-02
  0.674000025      -1.48453210E-02
  0.675000012      -1.48451691E-02
  0.675999999      -1.48449987E-02
  0.676999986      -1.48448097E-02
  0.677999973      -1.48446066E-02
  0.679000020      -1.48443924E-02
  0.680000007      -1.48441726E-02
  0.680999994      -1.48439500E-02
  0.681999981      -1.48437275E-02
  0.683000028      -1.48435049E-02
  0.684000015      -1.48432814E-02
  0.685000002      -1.48430523E-02
  0.685999990      -1.48428120E-02
  0.686999977      -1.48425531E-02
  0.688000023      -1.48422718E-02
  0.689000010      -1.48419645E-02
  0.689999998      -1.48416311E-02
  0.690999985      -1.48412753E-02
  0.691999972      -1.48409028E-02
  0.693000019      -1.48405209E-02
  0.694000006      -1.48401372E-02
  0.694999993      -1.48397591E-02
  0.695999980      -1.48393903E-02