 -0.2050000      0.0000000E+00
 -0.2040000      0.0000000E+00
 -0.2030000      0.0000000E+00
 -0.2020000      0.0000000E+00
 -0.2010000      0.0000000E+00
 -0.2000000      0.0000000E+00
 -0.1990000      0.0000000E+00
 -0.1980000      0.0000000E+00
 -0.1970000      0.0000000E+00
 -0.1960000      0.0000000E+00
 -0.1950000      0.0000000E+00
 -0.1940000      0.0000000E+00
 -0.1930000      0.0000000E+00
 -0.1920000      0.0000000E+00
 -0.1910000      0.0000000E+00
 -0.1900000      0.0000000E+00
 -0.1890000      0.0000000E+00
 -0.1880000      0.0000000E+00
 -0.1870000      0.0000000E+00
 -0.1860000      0.0000000E+00
 -0.1850000      0.0000000E+00
 -0.1840000      0.0000000E+00
 -0.1830000      0.0000000E+00
 -0.1820000      0.0000000E+00
 -0.1810000      0.0000000E+00
 -0.1800000      0.0000000E+00
 -0.1790000      0.0000000E+00
 -0.1780000      0.0000000E+00
 -0.1770000      0.0000000E+00
 -0.1760000      0.0000000E+00
 -0.1750000      0.0000000E+00
 -0.1740000      0.0000000E+00
 -0.1730000      0.0000000E+00
 -0.1720000      0.0000000E+00
 -0.1710000      0.0000000E+00
 -0.1700000      0.0000000E+00
 -0.1690000      0.0000000E+00
 -0.1680000      0.0000000E+00
 -0.1670000      0.0000000E+00
 -0.1660000      0.0000000E+00
 -0.1650000      0.0000000E+00
 -0.1640000      0.0000000E+00
 -0.1630000      0.0000000E+00
 -0.1620000      0.0000000E+00
 -0.1610000      0.0000000E+00
 -0.1600000      0.0000000E+00
 -0.1590000      0.0000000E+00
 -0.1580000      0.0000000E+00
 -0.1570000      0.0000000E+00
 -0.1560000      0.0000000E+00
 -0.1550000      0.0000000E+00
 -0.1540000      0.0000000E+00
 -0.1530000      0.0000000E+00
 -0.1520000      0.0000000E+00
 -0.1510000      0.0000000E+00
 -0.1500000      0.0000000E+00
 -0.1490000      0.0000000E+00
 -0.1480000      0.0000000E+00
 -0.1470000      0.0000000E+00
 -0.1460000      0.0000000E+00
 -0.1450000      0.0000000E+00
 -0.1440000      0.0000000E+00
 -0.1430000      0.0000000E+00
 -0.1420000      0.0000000E+00
 -0.1410000      0.0000000E+00
 -0.1400000      0.0000000E+00
 -0.1390000      0.0000000E+00
 -0.1380000      0.0000000E+00
 -0.1370000      0.0000000E+00
 -0.1360000      0.0000000E+00
 -0.1350000      0.0000000E+00
 -0.1340000      0.0000000E+00
 -0.1330000      0.0000000E+00
 -0.1320000      0.0000000E+00
 -0.1310000      0.0000000E+00
 -0.1300000      0.0000000E+00
 -0.1290000      0.0000000E+00
 -0.1280000      0.0000000E+00
 -0.1270000      0.0000000E+00
 -0.1260000      0.0000000E+00
 -0.1250000      0.0000000E+00
 -0.1240000      0.0000000E+00
 -0.1230000      0.0000000E+00
 -0.1220000      0.0000000E+00
 -0.1210000      0.0000000E+00
 -0.1200000      0.0000000E+00
 -0.1190000      0.0000000E+00
 -0.1180000      0.0000000E+00
 -0.1170000      0.0000000E+00
 -0.1160000      0.0000000E+00
 -0.1150000      0.0000000E+00
 -0.1140000      0.0000000E+00
 -0.1130000      0.0000000E+00
 -0.1120000      0.0000000E+00
 -0.1110000      0.0000000E+00
 -0.1100000      0.0000000E+00
 -0.1090000      0.0000000E+00
 -0.1080000      0.0000000E+00
 -0.1070000      0.0000000E+00
 -0.1060000      0.0000000E+00
 -0.1050000      0.0000000E+00
 -0.1040000      0.0000000E+00
 -0.1030000      0.0000000E+00
 -0.1020000      0.0000000E+00
 -0.1010000      0.0000000E+00
 -0.1000000      0.0000000E+00
 -9.8999999E-02  0.0000000E+00
 -9.7999997E-02  0.0000000E+00
 -9.7000003E-02  0.0000000E+00
 -9.6000001E-02  0.0000000E+00
 -9.4999999E-02  0.0000000E+00
 -9.3999997E-02  0.0000000E+00
 -9.3000002E-02  0.0000000E+00
 -9.2000000E-02  0.0000000E+00
 -9.0999998E-02  0.0000000E+00
 -9.0000004E-02  0.0000000E+00
 -8.9000002E-02  0.0000000E+00
 -8.8000000E-02  0.0000000E+00
 -8.6999997E-02  0.0000000E+00
 -8.6000003E-02  0.0000000E+00
 -8.5000001E-02  0.0000000E+00
 -8.3999999E-02  0.0000000E+00
 -8.2999997E-02  0.0000000E+00
 -8.2000002E-02  0.0000000E+00
 -8.1000000E-02  0.0000000E+00
 -7.9999998E-02  0.0000000E+00
 -7.9000004E-02  0.0000000E+00
 -7.8000002E-02  0.0000000E+00
 -7.7000000E-02  0.0000000E+00
 -7.5999998E-02 -1.4012985E-45
 -7.5000003E-02 -2.8025969E-45
 -7.4000001E-02 -4.2038954E-45
 -7.2999999E-02 -4.2038954E-45
 -7.1999997E-02 -7.0064923E-45
 -7.1000002E-02 -5.6051939E-45
 -7.0000000E-02 -5.6051939E-45
 -6.8999998E-02 -5.6051939E-45
 -6.8000004E-02 -2.8025969E-45
 -6.7000002E-02  1.4012985E-45
 -6.6000000E-02  8.4077908E-45
 -6.4999998E-02  1.9618179E-44
 -6.4000003E-02  3.2229865E-44
 -6.3000001E-02  4.9045446E-44
 -6.1999999E-02  7.2867520E-44
 -6.1000001E-02  1.0229479E-43
 -5.9999999E-02  1.2611686E-43
 -5.9000000E-02  1.5834673E-43
 -5.7999998E-02  1.9057659E-43
 -5.7000000E-02  2.1299737E-43
 -5.6000002E-02  2.3541814E-43
 -5.5000000E-02  2.4102334E-43
 -5.4000001E-02  2.3121425E-43
 -5.2999999E-02  1.9057659E-43
 -5.2000001E-02  1.1350518E-43
 -5.0999999E-02 -1.5414283E-44
 -5.0000001E-02 -2.0739217E-43
 -4.8999999E-02 -4.6943499E-43
 -4.8000000E-02 -8.0995051E-43
 -4.6999998E-02 -1.2387478E-42
 -4.6000000E-02 -1.7684387E-42
 -4.5000002E-02 -2.3822074E-42
 -4.4000000E-02 -3.0842579E-42
 -4.3000001E-02 -3.8283474E-42
 -4.1999999E-02 -4.5962590E-42
 -4.1000001E-02 -5.3151251E-42
 -3.9999999E-02 -5.9022691E-42
 -3.9000001E-02 -6.2315743E-42
 -3.7999999E-02 -6.1909366E-42
 -3.7000000E-02 -5.5701614E-42
 -3.5999998E-02 -4.1800733E-42
 -3.5000000E-02 -1.7684387E-42
 -3.4000002E-02  1.9183776E-42
 -3.3000000E-02  7.1914637E-42
 -3.2000002E-02  1.4317066E-41
 -3.0999999E-02  2.3574044E-41
 -2.9999999E-02  3.5159980E-41
 -2.8999999E-02  4.9195385E-41
 -2.8000001E-02  6.5638221E-41
 -2.7000001E-02  8.4239057E-41
 -2.6000001E-02  1.0443457E-40
 -2.5000000E-02  1.2526627E-40
 -2.4000000E-02  1.4528382E-40
 -2.3000000E-02  1.6237966E-40
 -2.2000000E-02  1.7376381E-40
 -2.1000000E-02  1.7575085E-40
 -2.0000000E-02  1.6372911E-40
 -1.8999999E-02  1.3209620E-40
 -1.7999999E-02  7.4226780E-41
 -1.7000001E-02 -1.7343871E-41
 -1.6000001E-02 -1.5076290E-40
 -1.5000000E-02 -3.3444790E-40
 -1.4000000E-02 -5.7639470E-40
 -1.3000000E-02 -8.8340518E-40
 -1.2000000E-02 -1.2598178E-39
 -1.1000000E-02 -1.7059660E-39
 -9.9999998E-03 -2.2162782E-39
 -8.9999996E-03 -2.7769742E-39
 -8.0000004E-03 -3.3633966E-39
 -7.0000002E-03 -3.9371162E-39
 -6.0000001E-03 -4.4429485E-39
 -4.9999999E-03 -4.8060221E-39
 -4.0000002E-03 -4.9292958E-39
 -3.0000000E-03 -4.6920223E-39
 -2.0000001E-03 -3.9494364E-39
 -1.0000000E-03 -2.5346799E-39
  2.7755576E-17 -2.6341188E-40
  1.0000000E-03  3.0579219E-39
  2.0000001E-03  7.6192087E-39
  3.0000000E-03  1.3588554E-38
  4.0000002E-03  2.1088026E-38
  4.9999999E-03  3.0162821E-38
  6.0000001E-03  4.0743756E-38
  7.0000002E-03  5.2603506E-38
  8.0000004E-03  6.5307862E-38
  8.9999996E-03  7.8163896E-38
  9.9999998E-03  9.0168736E-38
  1.1000000E-02  9.9962994E-38
  1.2000000E-02  1.0579547E-37
  1.3000000E-02  1.0550627E-37
  1.4000000E-02  9.6537873E-38
  1.5000000E-02  7.5983761E-38
  1.6000001E-02  4.0686858E-38
  1.7000001E-02 -1.2601579E-38
  1.7999999E-02 -8.6991387E-38
  1.8999999E-02 -1.8514178E-37
  2.0000000E-02 -3.0886309E-37
  2.1000000E-02 -4.5863014E-37
  2.2000000E-02 -6.3301432E-37
  2.3000000E-02 -8.2804802E-37
  2.4000000E-02 -1.0365481E-36
  2.5000000E-02 -1.2474376E-36
  2.6000001E-02 -1.4451208E-36
  2.7000001E-02 -1.6089807E-36
  2.8000001E-02 -1.7130861E-36
  2.8999999E-02 -1.7262114E-36
  2.9999999E-02 -1.6122772E-36
  3.0999999E-02 -1.3313456E-36
  3.2000002E-02 -8.4127879E-37
  3.3000000E-02 -1.0018442E-37
  3.4000002E-02  9.3026003E-37
  3.5000000E-02  2.2805502E-36
  3.5999998E-02  3.9681540E-36
  3.7000000E-02  5.9914364E-36
  3.7999999E-02  8.3228595E-36
  3.9000001E-02  1.0901735E-35
  3.9999999E-02  1.3626908E-35
  4.1000001E-02  1.6349911E-35
  4.1999999E-02  1.8869274E-35
  4.3000001E-02  2.0926804E-35
  4.4000000E-02  2.2206796E-35
  4.5000002E-02  2.2339248E-35
  4.6000000E-02  2.0908183E-35
  4.6999998E-02  1.7466173E-35
  4.8000000E-02  1.1556158E-35
  4.8999999E-02  2.7413159E-36
  5.0000001E-02 -9.3565189E-36
  5.0999999E-02 -2.5009733E-35
  5.2000001E-02 -4.4329826E-35
  5.2999999E-02 -6.7205520E-35
  5.4000001E-02 -9.3236429E-35
  5.5000000E-02 -1.2166556E-34
  5.6000002E-02 -1.5131504E-34
  5.7000000E-02 -1.8053064E-34
  5.7999998E-02 -2.0714222E-34
  5.9000000E-02 -2.2844702E-34
  5.9999999E-02 -2.4122556E-34
  6.1000001E-02 -2.4179776E-34
  6.1999999E-02 -2.2612955E-34
  6.3000001E-02 -1.8999691E-34
  6.4000003E-02 -1.2921484E-34
  6.4999998E-02 -3.9935136E-35
  6.6000000E-02  8.0986418E-35
  6.7000002E-02  2.3555672E-34
  6.8000004E-02  4.2415624E-34
  6.8999998E-02  6.4500909E-34
  7.0000000E-02  8.9363698E-34
  7.1000002E-02  1.1623288E-33
  7.1999997E-02  1.4396646E-33
  7.2999999E-02  1.7101443E-33
  7.4000001E-02  1.9539767E-33
  7.5000003E-02  2.1470845E-33
  7.5999998E-02  2.2614015E-33
  7.7000000E-02  2.2655093E-33
  7.8000002E-02  2.1256889E-33
  7.9000004E-02  1.8074236E-33
  7.9999998E-02  1.2773953E-33
  8.1000000E-02  5.0598084E-34
  8.2000002E-02 -5.2976867E-34
  8.2999997E-02 -1.8427279E-33
  8.3999999E-02 -3.4319586E-33
  8.5000001E-02 -5.2788013E-33
  8.6000003E-02 -7.3429760E-33
  8.6999997E-02 -9.5589680E-33
  8.8000000E-02 -1.1832979E-32
  8.9000002E-02 -1.4040819E-32
  9.0000004E-02 -1.6027116E-32
  9.0999998E-02 -1.7606272E-32
  9.2000000E-02 -1.8565543E-32
  9.3000002E-02 -1.8670694E-32
  9.3999997E-02 -1.7674485E-32
  9.4999999E-02 -1.5328313E-32
  9.6000001E-02 -1.1397086E-32
  9.7000003E-02 -5.6772487E-33
  9.7999997E-02  1.9822466E-33
  9.8999999E-02  1.1656588E-32
  0.1000000      2.3320161E-32
  0.1010000      3.6821117E-32
  0.1020000      5.1856898E-32
  0.1030000      6.7952366E-32
  0.1040000      8.4442724E-32
  0.1050000      1.0046334E-31
  0.1060000      1.1494885E-31
  0.1070000      1.2664407E-31
  0.1080000      1.3412907E-31
  0.1090000      1.3586046E-31
  0.1100000      1.3023037E-31
  0.1110000      1.1564449E-31
  0.1120000      9.0618624E-32
  0.1130000      5.3893518E-32
  0.1140000      4.5649537E-33
  0.1150000     -5.7774495E-32
  0.1160000     -1.3288744E-31
  0.1170000     -2.1974456E-31
  0.1180000     -3.1638722E-31
  0.1190000     -4.1981093E-31
  0.1200000     -5.2587969E-31
  0.1210000     -6.2928590E-31
  0.1220000     -7.2356746E-31
  0.1230000     -8.0119523E-31
  0.1240000     -8.5374349E-31
  0.1250000     -8.7215089E-31
  0.1260000     -8.4708126E-31
  0.1270000     -7.6938461E-31
  0.1280000     -6.3065714E-31
  0.1290000     -4.2388966E-31
  0.1300000     -1.4418973E-31
  0.1310000      2.1044866E-31
  0.1320000      6.3835780E-31
  0.1330000      1.1334352E-30
  0.1340000      1.6844554E-30
  0.1350000      2.2745109E-30
  0.1360000      2.8806452E-30
  0.1370000      3.4737363E-30
  0.1380000      4.0187026E-30
  0.1390000      4.4750780E-30
  0.1400000      4.7980290E-30
  0.1410000      4.9398260E-30
  0.1420000      4.8518114E-30
  0.1430000      4.4868570E-30
  0.1440000      3.8022717E-30
  0.1450000      2.7631163E-30
  0.1460000      1.3458086E-30
  0.1470000     -4.5809889E-31
  0.1480000     -2.6381554E-30
  0.1490000     -5.1614607E-30
  0.1500000     -7.9695756E-30
  0.1510000     -1.0976164E-29
  0.1520000     -1.4065641E-29
  0.1530000     -1.7093128E-29
  0.1540000     -1.9885990E-29
  0.1550000     -2.2247199E-29
  0.1560000     -2.3960740E-29
  0.1570000     -2.4799160E-29
  0.1580000     -2.4533331E-29
  0.1590000     -2.2944338E-29
  0.1600000     -1.9837300E-29
  0.1610000     -1.5056746E-29
  0.1620000     -8.5030582E-30
  0.1630000     -1.4931336E-31
  0.1640000      9.9423387E-30
  0.1650000      2.1605684E-29
  0.1660000      3.4557996E-29
  0.1670000      4.8391274E-29
  0.1680000      6.2568342E-29
  0.1690000      7.6425137E-29
  0.1700000      8.9180114E-29
  0.1710000      9.9951834E-29
  0.1720000      1.0778538E-28
  0.1730000      1.1168793E-28
  0.1740000      1.1067337E-28
  0.1750000      1.0381541E-28
  0.1760000      9.0308131E-29
  0.1770000      6.9531825E-29
  0.1780000      4.1122306E-29
  0.1790000      5.0400375E-30
  0.1800000     -3.8364199E-29
  0.1810000     -8.8291375E-29
  0.1820000     -1.4344862E-28
  0.1830000     -2.0202071E-28
  0.1840000     -2.6166339E-28
  0.1850000     -3.1952312E-28
  0.1860000     -3.7228731E-28
  0.1870000     -4.1626799E-28
  0.1880000     -4.4752146E-28
  0.1890000     -4.6200344E-28
  0.1900000     -4.5575981E-28
  0.1910000     -4.2514846E-28
  0.1920000     -3.6708677E-28
  0.1930000     -2.7931707E-28
  0.1940000     -1.6067979E-28
  0.1950000     -1.1380829E-29
  0.1960000      1.6676140E-28
  0.1970000      3.7010564E-28
  0.1980000      5.9303216E-28
  0.1990000      8.2785973E-28
  0.2000000      1.0648532E-27
  0.2010000      1.2923378E-27
  0.2020000      1.4969336E-27
  0.2030000      1.6639220E-27
  0.2040000      1.7777454E-27
  0.2050000      1.8226452E-27
  0.2060000      1.7834260E-27
  0.2070000      1.6463294E-27
  0.2080000      1.3999988E-27
  0.2090000      1.0364972E-27
  0.2100000      5.5233841E-28
  0.2110000     -5.0519622E-29
  0.2120000     -7.6377196E-28
  0.2130000     -1.5720215E-27
  0.2140000     -2.4522529E-27
  0.2150000     -3.3735926E-27
  0.2160000     -4.2974165E-27
  0.2170000     -5.1778700E-27
  0.2180000     -5.9628293E-27
  0.2190000     -6.5953525E-27
  0.2200000     -7.0156366E-27
  0.2210000     -7.1634448E-27
  0.2220000     -6.9810107E-27
  0.2230000     -6.4163219E-27
  0.2240000     -5.4267121E-27
  0.2250000     -3.9826325E-27
  0.2260000     -2.0714445E-27
  0.2270000      2.9892992E-28
  0.2280000      3.0967257E-27
  0.2290000      6.2636188E-27
  0.2300000      9.7128121E-27
  0.2310000      1.3328175E-26
  0.2320000      1.6964611E-26
  0.2330000      2.0449906E-26
  0.2340000      2.3588161E-26
  0.2350000      2.6164982E-26
  0.2360000      2.7954386E-26
  0.2370000      2.8727519E-26
  0.2380000      2.8262957E-26
  0.2390000      2.6358425E-26
  0.2400000      2.2843689E-26
  0.2410000      1.7594050E-26
  0.2420000      1.0544104E-26
  0.2430000      1.7010709E-27
  0.2440000     -8.8430044E-27
  0.2450000     -2.0900874E-26
  0.2460000     -3.4182348E-26
  0.2470000     -4.8289963E-26
  0.2480000     -6.2718799E-26
  0.2490000     -7.6861196E-26
  0.2500000     -9.0016930E-26
  0.2510000     -1.0140918E-25
  0.2520000     -1.1020673E-25
  0.2530000     -1.1555222E-25
  0.2540000     -1.1659613E-25
  0.2550000     -1.1253635E-25
  0.2560000     -1.0266177E-25
  0.2570000     -8.6399140E-26
  0.2580000     -6.3361628E-26
  0.2590000     -3.3396901E-26
  0.2600000      3.3672050E-27
  0.2610000      4.6481771E-26
  0.2620000      9.5143318E-26
  0.2630000      1.4817044E-25
  0.2640000      2.0399270E-25
  0.2650000      2.6065508E-25
  0.2660000      3.1583912E-25
  0.2670000      3.6690330E-25
  0.2680000      4.1094388E-25
  0.2690000      4.4487623E-25
  0.2700000      4.6553670E-25
  0.2710000      4.6980444E-25
  0.2720000      4.5474025E-25
  0.2730000      4.1774021E-25
  0.2740000      3.5669832E-25
  0.2750000      2.7017497E-25
  0.2760000      1.5756366E-25
  0.2770000      1.9248822E-26
  0.2780000     -1.4325230E-25
  0.2790000     -3.2717279E-25
  0.2800000     -5.2841276E-25
  0.2810000     -7.4149676E-25
  0.2820000     -9.5958263E-25
  0.2830000     -1.1745256E-24
  0.2840000     -1.3770076E-24
  0.2850000     -1.5567308E-24
  0.2860000     -1.7026835E-24
  0.2870000     -1.8034739E-24
  0.2880000     -1.8477311E-24
  0.2890000     -1.8245651E-24
  0.2900000     -1.7240772E-24
  0.2910000     -1.5379126E-24
  0.2920000     -1.2598276E-24
  0.2930000     -8.8626689E-25
  0.2940000     -4.1691457E-25
  0.2950000      1.4479486E-25
  0.2960000      7.9123952E-25
  0.2970000      1.5102708E-24
  0.2980000      2.2850017E-24
  0.2990000      3.0937484E-24
  0.3000000      3.9101508E-24
  0.3010000      4.7034940E-24
  0.3020000      5.4392480E-24
  0.3030000      6.0798303E-24
  0.3040000      6.5856092E-24
  0.3050000      6.9161234E-24
  0.3060000      7.0315298E-24
  0.3070000      6.8942238E-24
  0.3080000      6.4706197E-24
  0.3090000      5.7330506E-24
  0.3100000      4.6616927E-24
  0.3110000      3.2465032E-24
  0.3120000      1.4890423E-24
  0.3130000     -5.9585928E-25
  0.3140000     -2.9787145E-24
  0.3150000     -5.6143357E-24
  0.3160000     -8.4412400E-24
  0.3170000     -1.1381583E-23
  0.3180000     -1.4341706E-23
  0.3190000     -1.7213352E-23
  0.3200000     -1.9875617E-23
  0.3210000     -2.2197650E-23
  0.3220000     -2.4042122E-23
  0.3230000     -2.5269431E-23
  0.3240000     -2.5742589E-23
  0.3250000     -2.5332719E-23
  0.3260000     -2.3925042E-23
  0.3270000     -2.1425143E-23
  0.3280000     -1.7765422E-23
  0.3290000     -1.2911442E-23
  0.3300000     -6.8678988E-24
  0.3310000      3.1595208E-25
  0.3320000      8.5418095E-24
  0.3330000      1.7659010E-23
  0.3340000      2.7462675E-23
  0.3350000      3.7693633E-23
  0.3360000      4.8040294E-23
  0.3370000      5.8142747E-23
  0.3380000      6.7599182E-23
  0.3390000      7.5974765E-23
  0.3400000      8.2812895E-23
  0.3410000      8.7648877E-23
  0.3420000      9.0025684E-23
  0.3430000      8.9511706E-23
  0.3440000      8.5719784E-23
  0.3450000      7.8327495E-23
  0.3460000      6.7097536E-23
  0.3470000      5.1898036E-23
  0.3480000      3.2721480E-23
  0.3490000      9.7019794E-24
  0.3500000     -1.6870455E-23
  0.3510000     -4.6539430E-23
  0.3520000     -7.8676096E-23
  0.3530000     -1.1247863E-22
  0.3540000     -1.4697785E-22
  0.3550000     -1.8104950E-22
  0.3560000     -2.1343383E-22
  0.3570000     -2.4276246E-22
  0.3580000     -2.6759285E-22
  0.3590000     -2.8644951E-22
  0.3600000     -2.9787216E-22
  0.3610000     -3.0046929E-22
  0.3620000     -2.9297628E-22
  0.3630000     -2.7431629E-22
  0.3640000     -2.4366298E-22
  0.3650000     -2.0050091E-22
  0.3660000     -1.4468446E-22
  0.3670000     -7.6489771E-23
  0.3680000      3.3409080E-24
  0.3690000      9.3565908E-23
  0.3700000      1.9242406E-22
  0.3710000      2.9763040E-22
  0.3720000      4.0638936E-22
  0.3730000      5.1542788E-22
  0.3740000      6.2104841E-22
  0.3750000      7.1920461E-22
  0.3760000      8.0559657E-22
  0.3770000      8.7578808E-22
  0.3780000      9.2534157E-22
  0.3790000      9.4997210E-22
  0.3800000      9.4570968E-22
  0.3810000      9.0907584E-22
  0.3820000      8.3726248E-22
  0.3830000      7.2830713E-22
  0.3840000      5.8126326E-22
  0.3850000      3.9635548E-22
  0.3860000      1.7511200E-22
  0.3870000     -7.9530476E-23
  0.3880000     -3.6315710E-22
  0.3890000     -6.6984772E-22
  0.3900000     -9.9219729E-22
  0.3910000     -1.3213878E-21
  0.3920000     -1.6473184E-21
  0.3930000     -1.9587910E-21
  0.3940000     -2.2437565E-21
  0.3950000     -2.4896161E-21
  0.3960000     -2.6835761E-21
  0.3970000     -2.8130528E-21
  0.3980000     -2.8661105E-21
  0.3990000     -2.8319338E-21
  0.4000000     -2.7013152E-21
  0.4010000     -2.4671399E-21
  0.4020000     -2.1248636E-21
  0.4030000     -1.6729547E-21
  0.4040000     -1.1132858E-21
  0.4050000     -4.5146325E-22
  0.4060000      3.0293766E-22
  0.4070000      1.1362330E-21
  0.4080000      2.0306157E-21
  0.4090000      2.9642694E-21
  0.4100000      3.9116293E-21
  0.4110000      4.8437924E-21
  0.4120000      5.7290784E-21
  0.4130000      6.5337482E-21
  0.4140000      7.2228636E-21
  0.4150000      7.7612741E-21
  0.4160000      8.1147363E-21
  0.4170000      8.2510991E-21
  0.4180000      8.1415777E-21
  0.4190000      7.7620302E-21
  0.4200000      7.0942442E-21
  0.4210000      6.1271615E-21
  0.4220000      4.8580083E-21
  0.4230000      3.2932764E-21
  0.4240000      1.4495259E-21
  0.4250000     -6.4606310E-22
  0.4260000     -2.9554010E-21
  0.4270000     -5.4295287E-21
  0.4280000     -8.0089994E-21
  0.4290000     -1.0624629E-20
  0.4300000     -1.3198646E-20
  0.4310000     -1.5646213E-20
  0.4320000     -1.7877346E-20
  0.4330000     -1.9799201E-20
  0.4340000     -2.1318658E-20
  0.4350000     -2.2345213E-20
  0.4360000     -2.2794085E-20
  0.4370000     -2.2589443E-20
  0.4380000     -2.1667720E-20
  0.4390000     -1.9980837E-20
  0.4400000     -1.7499335E-20
  0.4410000     -1.4215196E-20
  0.4420000     -1.0144325E-20
  0.4430000     -5.3285125E-21
  0.4440000      1.6319597E-22
  0.4450000      6.2338080E-21
  0.4460000      1.2758542E-20
  0.4470000      1.9585813E-20
  0.4480000      2.6539158E-20
  0.4490000      3.3420113E-20
  0.4500000      4.0012112E-20
  0.4510000      4.6085214E-20
  0.4520000      5.1401847E-20
  0.4530000      5.5723242E-20
  0.4540000      5.8816639E-20
  0.4550000      6.0462922E-20
  0.4560000      6.0464738E-20
  0.4570000      5.8654505E-20
  0.4580000      5.4902633E-20
  0.4590000      4.9125042E-20
  0.4600000      4.1290310E-20
  0.4610000      3.1425784E-20
  0.4620000      1.9622487E-20
  0.4630000      6.0386455E-21
  0.4640000     -9.0985198E-21
  0.4650000     -2.5492944E-20
  0.4660000     -4.2781859E-20
  0.4670000     -6.0540309E-20
  0.4680000     -7.8287753E-20
  0.4690000     -9.5497252E-20
  0.4700000     -1.1160665E-19
  0.4710000     -1.2603200E-19
  0.4720000     -1.3818299E-19
  0.4730000     -1.4747967E-19
  0.4740000     -1.5337107E-19
  0.4750000     -1.5535393E-19
  0.4760000     -1.5299235E-19
  0.4770000     -1.4593696E-19
  0.4780000     -1.3394339E-19
  0.4790000     -1.1688928E-19
  0.4800000     -9.4789282E-20
  0.4810000     -6.7807368E-20
  0.4820000     -3.6265747E-20
  0.4830000     -6.5011671E-22
  0.4840000      3.8389636E-20
  0.4850000      8.0043399E-20
  0.4860000      1.2334992E-19
  0.4870000      1.6721117E-19
  0.4880000      2.1041196E-19
  0.4890000      2.5164476E-19
  0.4900000      2.8953945E-19
  0.4910000      3.2269756E-19
  0.4920000      3.4973046E-19
  0.4930000      3.6930032E-19
  0.4940000      3.8016350E-19
  0.4950000      3.8121495E-19
  0.4960000      3.7153223E-19
  0.4970000      3.5041847E-19
  0.4980000      3.1744209E-19
  0.4990000      2.7247265E-19
  0.5000000      2.1571051E-19
  0.5010000      1.4771030E-19
  0.5020000      6.9395484E-20
  0.5030000     -1.7936045E-20
  0.5040000     -1.1261685E-19
  0.5050000     -2.1262590E-19
  0.5060000     -3.1561586E-19
  0.5070000     -4.1895183E-19
  0.5080000     -5.1976225E-19
  0.5090000     -6.1499989E-19
  0.5100000     -7.0151389E-19
  0.5110000     -7.7612956E-19
  0.5120000     -8.3573666E-19
  0.5130000     -8.7738210E-19
  0.5140000     -8.9836654E-19
  0.5150000     -8.9634149E-19
  0.5160000     -8.6940353E-19
  0.5170000     -8.1618604E-19
  0.5180000     -7.3593892E-19
  0.5190000     -6.2860226E-19
  0.5200000     -4.9486344E-19
  0.5210000     -3.3619916E-19
  0.5220000     -1.5489659E-19
  0.5230000      4.5943466E-20
  0.5240000      2.6242755E-19
  0.5250000      4.8991478E-19
  0.5260000      7.2308526E-19
  0.5270000      9.5603374E-19
  0.5280000      1.1823861E-18
  0.5290000      1.3954385E-18
  0.5300000      1.5883167E-18
  0.5310000      1.7541508E-18
  0.5320000      1.8862654E-18
  0.5330000      1.9783780E-18
  0.5340000      2.0247996E-18
  0.5350000      2.0206397E-18
  0.5360000      1.9620004E-18
  0.5370000      1.8461563E-18
  0.5380000      1.6717203E-18
  0.5390000      1.4387853E-18
  0.5400000      1.1490294E-18
  0.5410000      8.0579262E-19
  0.5420000      4.1411122E-19
  0.5430000     -1.9292333E-20
  0.5440000     -4.8606544E-19
  0.5450000     -9.7633069E-19
  0.5460000     -1.4788387E-18
  0.5470000     -1.9811704E-18
  0.5480000     -2.4699861E-18
  0.5490000     -2.9313182E-18
  0.5500000     -3.3508985E-18
  0.5510000     -3.7145199E-18
  0.5520000     -4.0084238E-18
  0.5530000     -4.2196989E-18
  0.5540000     -4.3366867E-18
  0.5550000     -4.3493851E-18
  0.5560000     -4.2498298E-18
  0.5570000     -4.0324542E-18
  0.5580000     -3.6944016E-18
  0.5590000     -3.2357947E-18
  0.5600000     -2.6599428E-18
  0.5610000     -1.9734660E-18
  0.5620000     -1.1863593E-18
  0.5630000     -3.1195346E-19
  0.5640000      6.3320728E-19
  0.5650000      1.6295828E-18
  0.5660000      2.6549516E-18
  0.5670000      3.6848146E-18
  0.5680000      4.6928868E-18
  0.5690000      5.6516714E-18
  0.5700000      6.5331023E-18
  0.5710000      7.3092392E-18
  0.5720000      7.9530149E-18
  0.5730000      8.4389984E-18
  0.5740000      8.7441684E-18
  0.5750000      8.8486653E-18
  0.5760000      8.7365286E-18
  0.5770000      8.3963431E-18
  0.5780000      7.8218397E-18
  0.5790000      7.0123757E-18
  0.5800000      5.9733144E-18
  0.5810000      4.7162493E-18
  0.5820000      3.2590970E-18
  0.5830000      1.6260227E-18
  0.5840000     -1.5280974E-19
  0.5850000     -2.0416451E-18
  0.5860000     -3.9997318E-18
  0.5870000     -5.9820676E-18
  0.5880000     -7.9403118E-18
  0.5890000     -9.8238310E-18
  0.5900000     -1.1580871E-17
  0.5910000     -1.3159824E-17
  0.5920000     -1.4510559E-17
  0.5930000     -1.5585795E-17
  0.5940000     -1.6342483E-17
  0.5950000     -1.6743148E-17
  0.5960000     -1.6757137E-17
  0.5970000     -1.6361831E-17
  0.5980000     -1.5543622E-17
  0.5990000     -1.4298778E-17
  0.6000000     -1.2634066E-17
  0.6010000     -1.0567160E-17
  0.6020000     -8.1267484E-18
  0.6030000     -5.3524107E-18
  0.6040000     -2.2941718E-18
  0.6050000      9.8821810E-19
  0.6060000      4.4262968E-18
  0.6070000      7.9441864E-18
  0.6080000      1.1460127E-17
  0.6090000      1.4888255E-17
  0.6100000      1.8140572E-17
  0.6110000      2.1129037E-17
  0.6120000      2.3767829E-17
  0.6130000      2.5975546E-17
  0.6140000      2.7677526E-17
  0.6150000      2.8807988E-17
  0.6160000      2.9312128E-17
  0.6170000      2.9147979E-17
  0.6180000      2.8288048E-17
  0.6190000      2.6720642E-17
  0.6200000      2.4450880E-17
  0.6210000      2.1501268E-17
  0.6220000      1.7911903E-17
  0.6230000      1.3740225E-17
  0.6240000      9.0602838E-18
  0.6250000      3.9616149E-18
  0.6260000     -1.4523654E-18
  0.6270000     -7.0663897E-18
  0.6280000     -1.2755717E-17
  0.6290000     -1.8388869E-17
  0.6300000     -2.3830617E-17
  0.6310000     -2.8945207E-17
  0.6320000     -3.3599689E-17
  0.6330000     -3.7667324E-17
  0.6340000     -4.1030905E-17
  0.6350000     -4.3586032E-17
  0.6360000     -4.5244093E-17
  0.6370000     -4.5935014E-17
  0.6380000     -4.5609591E-17
  0.6390000     -4.4241355E-17
  0.6400000     -4.1828002E-17
  0.6410000     -3.8392142E-17
  0.6420000     -3.3981556E-17
  0.6430000     -2.8668704E-17
  0.6440000     -2.2549709E-17
  0.6450000     -1.5742630E-17
  0.6460000     -8.3851671E-18
  0.6470000     -6.3177170E-19
  0.6480000      7.3496974E-18
  0.6490000      1.5381791E-17
  0.6500000      2.3281627E-17
  0.6510000      3.0865249E-17
  0.6520000      3.7952165E-17
  0.6530000      4.4369905E-17
  0.6540000      4.9958453E-17
  0.6550000      5.4574439E-17
  0.6560000      5.8095118E-17
  0.6570000      6.0421752E-17
  0.6580000      6.1482489E-17
  0.6590000      6.1234639E-17
  0.6600000      5.9666318E-17
  0.6610000      5.6797053E-17
  0.6620000      5.2677929E-17
  0.6630000      4.7390610E-17
  0.6640000      4.1045721E-17
  0.6650000      3.3780392E-17
  0.6660000      2.5755021E-17
  0.6670000      1.7149441E-17
  0.6680000      8.1584526E-18
  0.6690000     -1.0131009E-18
  0.6700000     -1.0155589E-17
  0.6710000     -1.9060040E-17
  0.6720000     -2.7523656E-17
  0.6730000     -3.5355274E-17
  0.6740000     -4.2380453E-17
  0.6750000     -4.8446341E-17
  0.6760000     -5.3425799E-17
  0.6770000     -5.7220993E-17
  0.6780000     -5.9766142E-17
  0.6790000     -6.1029372E-17
  0.6800000     -6.1013629E-17
  0.6810000     -5.9756553E-17
  0.6820000     -5.7329374E-17
  0.6830000     -5.3834784E-17
  0.6840000     -4.9403769E-17
  0.6850000     -4.4191621E-17
  0.6860000     -3.8373094E-17
  0.6870000     -3.2136890E-17
  0.6880000     -2.5679653E-17
  0.6890000     -1.9199520E-17
  0.6900000     -1.2889617E-17
  0.6910000     -6.9314414E-18
  0.6920000     -1.4886035E-18
  0.6930000      3.2990312E-18
  0.6940000      7.3206386E-18
  0.6950000      1.0498790E-17
  0.6960000      1.2792896E-17
  0.6970000      1.4201467E-17
  0.6980000      1.4763116E-17
  0.6990000      1.4556231E-17
  0.7000000      1.3697333E-17
  0.7010000      1.2337779E-17
  0.7020000      1.0659448E-17
  0.7030000      8.8688916E-18
  0.7040000      7.1904635E-18
  0.7050000      5.8583553E-18
  0.7060000      5.1079135E-18
  0.7070000      5.1663807E-18
  0.7080000      6.2433376E-18
  0.7090000      8.5211440E-18
  0.7100000      1.2145713E-17
  0.7110000      1.7217862E-17
  0.7120000      2.3785572E-17
  0.7130000      3.1837570E-17
  0.7140000      4.1298292E-17
  0.7150000      5.2024648E-17
  0.7160000      6.3804788E-17
  0.7170000      7.6358948E-17
  0.7180000      8.9342448E-17
  0.7190000      1.0235118E-16
  0.7200000      1.1492935E-16
  0.7210000      1.2657906E-16
  0.7220000      1.3677251E-16
  0.7230000      1.4496563E-16
  0.7240000      1.5061338E-16
  0.7250000      1.5318636E-16
  0.7260000      1.5218814E-16
  0.7270000      1.4717299E-16
  0.7280000      1.3776358E-16
  0.7290000      1.2366797E-16
  0.7300000      1.0469565E-16
  0.7310000      8.0771798E-17
  0.7320000      5.1949470E-17
  0.7330000      1.8419274E-17
  0.7340000     -1.9484114E-17
  0.7350000     -6.1278797E-17
  0.7360000     -1.0633606E-16
  0.7370000     -1.5388472E-16
  0.7380000     -2.0301998E-16
  0.7390000     -2.5271530E-16
  0.7400000     -3.0183963E-16
  0.7410000     -3.4917718E-16
  0.7420000     -3.9345152E-16
  0.7430000     -4.3335264E-16
  0.7440000     -4.6756637E-16
  0.7450000     -4.9480621E-16
  0.7460000     -5.1384629E-16
  0.7470000     -5.2355525E-16
  0.7480000     -5.2292961E-16
  0.7490000     -5.1112652E-16
  0.7500000     -4.8749457E-16
  0.7510000     -4.5160186E-16
  0.7520000     -4.0326071E-16
  0.7530000     -3.4254870E-16
  0.7540000     -2.6982338E-16
  0.7550000     -1.8573292E-16
  0.7560000     -9.1219870E-17
  0.7570000      1.2480988E-17
  0.7580000      1.2385232E-16
  0.7590000      2.4111018E-16
  0.7600000      3.6222663E-16
  0.7610000      4.8495950E-16