 -0.2050000      0.0000000E+00
 -0.2040000      0.0000000E+00
 -0.2030000      0.0000000E+00
 -0.2020000      0.0000000E+00
 -0.2010000      0.0000000E+00
 -0.2000000      0.0000000E+00
 -0.1990000      0.0000000E+00
 -0.1980000      0.0000000E+00
 -0.1970000      0.0000000E+00
 -0.1960000      0.0000000E+00
 -0.1950000      0.0000000E+00
 -0.1940000      0.0000000E+00
 -0.1930000      0.0000000E+00
 -0.1920000      0.0000000E+00
 -0.1910000      0.0000000E+00
 -0.1900000      0.0000000E+00
 -0.1890000      0.0000000E+00
 -0.1880000      0.0000000E+00
 -0.1870000      0.0000000E+00
 -0.1860000      0.0000000E+00
 -0.1850000      0.0000000E+00
 -0.1840000      0.0000000E+00
 -0.1830000      0.0000000E+00
 -0.1820000      0.0000000E+00
 -0.1810000      0.0000000E+00
 -0.1800000      0.0000000E+00
 -0.1790000      0.0000000E+00
 -0.1780000      0.0000000E+00
 -0.1770000      0.0000000E+00
 -0.1760000      0.0000000E+00
 -0.1750000      0.0000000E+00
 -0.1740000      0.0000000E+00
 -0.1730000      0.0000000E+00
 -0.1720000      0.0000000E+00
 -0.1710000      0.0000000E+00
 -0.1700000      0.0000000E+00
 -0.1690000      0.0000000E+00
 -0.1680000      0.0000000E+00
 -0.1670000      0.0000000E+00
 -0.1660000      0.0000000E+00
 -0.1650000      0.0000000E+00
 -0.1640000      0.0000000E+00
 -0.1630000      0.0000000E+00
 -0.1620000      0.0000000E+00
 -0.1610000      0.0000000E+00
 -0.1600000      0.0000000E+00
 -0.1590000      0.0000000E+00
 -0.1580000      0.0000000E+00
 -0.1570000      0.0000000E+00
 -0.1560000      0.0000000E+00
 -0.1550000      0.0000000E+00
 -0.1540000      0.0000000E+00
 -0.1530000      0.0000000E+00
 -0.1520000      0.0000000E+00
 -0.1510000      0.0000000E+00
 -0.1500000      0.0000000E+00
 -0.1490000      0.0000000E+00
 -0.1480000      0.0000000E+00
 -0.1470000      0.0000000E+00
 -0.1460000      0.0000000E+00
 -0.1450000      0.0000000E+00
 -0.1440000      0.0000000E+00
 -0.1430000      0.0000000E+00
 -0.1420000      0.0000000E+00
 -0.1410000      0.0000000E+00
 -0.1400000      0.0000000E+00
 -0.1390000      0.0000000E+00
 -0.1380000      0.0000000E+00
 -0.1370000      0.0000000E+00
 -0.1360000      0.0000000E+00
 -0.1350000      0.0000000E+00
 -0.1340000      0.0000000E+00
 -0.1330000      0.0000000E+00
 -0.1320000      0.0000000E+00
 -0.1310000      0.0000000E+00
 -0.1300000      0.0000000E+00
 -0.1290000      0.0000000E+00
 -0.1280000      0.0000000E+00
 -0.1270000      0.0000000E+00
 -0.1260000      0.0000000E+00
 -0.1250000      0.0000000E+00
 -0.1240000      0.0000000E+00
 -0.1230000      0.0000000E+00
 -0.1220000      0.0000000E+00
 -0.1210000      0.0000000E+00
 -0.1200000      0.0000000E+00
 -0.1190000      0.0000000E+00
 -0.1180000      0.0000000E+00
 -0.1170000      0.0000000E+00
 -0.1160000      0.0000000E+00
 -0.1150000      0.0000000E+00
 -0.1140000      0.0000000E+00
 -0.1130000      0.0000000E+00
 -0.1120000      0.0000000E+00
 -0.1110000      0.0000000E+00
 -0.1100000      0.0000000E+00
 -0.1090000      0.0000000E+00
 -0.1080000      0.0000000E+00
 -0.1070000      0.0000000E+00
 -0.1060000      0.0000000E+00
 -0.1050000      0.0000000E+00
 -0.1040000      0.0000000E+00
 -0.1030000      0.0000000E+00
 -0.1020000      0.0000000E+00
 -0.1010000      0.0000000E+00
 -0.1000000      0.0000000E+00
 -9.8999999E-02  0.0000000E+00
 -9.7999997E-02  0.0000000E+00
 -9.7000003E-02  0.0000000E+00
 -9.6000001E-02  0.0000000E+00
 -9.4999999E-02  0.0000000E+00
 -9.3999997E-02  0.0000000E+00
 -9.3000002E-02  0.0000000E+00
 -9.2000000E-02  0.0000000E+00
 -9.0999998E-02  0.0000000E+00
 -9.0000004E-02  0.0000000E+00
 -8.9000002E-02  0.0000000E+00
 -8.8000000E-02  0.0000000E+00
 -8.6999997E-02  0.0000000E+00
 -8.6000003E-02  0.0000000E+00
 -8.5000001E-02  0.0000000E+00
 -8.3999999E-02  0.0000000E+00
 -8.2999997E-02  0.0000000E+00
 -8.2000002E-02  0.0000000E+00
 -8.1000000E-02  0.0000000E+00
 -7.9999998E-02  0.0000000E+00
 -7.9000004E-02  0.0000000E+00
 -7.8000002E-02  0.0000000E+00
 -7.7000000E-02  0.0000000E+00
 -7.5999998E-02  0.0000000E+00
 -7.5000003E-02 -1.4012985E-45
 -7.4000001E-02 -4.2038954E-45
 -7.2999999E-02 -2.8025969E-45
 -7.1999997E-02 -4.2038954E-45
 -7.1000002E-02 -5.6051939E-45
 -7.0000000E-02 -4.2038954E-45
 -6.8999998E-02 -4.2038954E-45
 -6.8000004E-02 -4.2038954E-45
 -6.7000002E-02 -7.0064923E-45
 -6.6000000E-02 -1.4012985E-45
 -6.4999998E-02  1.4012985E-45
 -6.4000003E-02  4.2038954E-45
 -6.3000001E-02  1.1210388E-44
 -6.1999999E-02  1.1210388E-44
 -6.1000001E-02  1.2611686E-44
 -5.9999999E-02  2.3822074E-44
 -5.9000000E-02  3.3631163E-44
 -5.7999998E-02  4.4841551E-44
 -5.7000000E-02  6.3058431E-44
 -5.6000002E-02  7.8472714E-44
 -5.5000000E-02  1.0789998E-43
 -5.4000001E-02  1.3592595E-43
 -5.2999999E-02  1.8076750E-43
 -5.2000001E-02  2.2841165E-43
 -5.0999999E-02  2.9427268E-43
 -5.0000001E-02  3.6433760E-43
 -4.8999999E-02  4.4701421E-43
 -4.8000000E-02  5.1567783E-43
 -4.6999998E-02  5.7873627E-43
 -4.6000000E-02  6.1236743E-43
 -4.5000002E-02  6.0255834E-43
 -4.4000000E-02  5.0166485E-43
 -4.3000001E-02  2.9987787E-43
 -4.1999999E-02 -7.7071416E-44
 -4.1000001E-02 -6.6421547E-43
 -3.9999999E-02 -1.5330205E-42
 -3.9000001E-02 -2.7185190E-42
 -3.7999999E-02 -4.2767629E-42
 -3.7000000E-02 -6.2539950E-42
 -3.5999998E-02 -8.6291959E-42
 -3.5000000E-02 -1.1356123E-41
 -3.4000002E-02 -1.4307257E-41
 -3.3000000E-02 -1.7271004E-41
 -3.2000002E-02 -1.9908247E-41
 -3.0999999E-02 -2.1706113E-41
 -2.9999999E-02 -2.2008794E-41
 -2.8999999E-02 -1.9975510E-41
 -2.8000001E-02 -1.4569300E-41
 -2.7000001E-02 -4.5780421E-42
 -2.6000001E-02  1.1286058E-41
 -2.5000000E-02  3.4372450E-41
 -2.4000000E-02  6.5873640E-41
 -2.3000000E-02  1.0667805E-40
 -2.2000000E-02  1.5705893E-40
 -2.1000000E-02  2.1639411E-40
 -2.0000000E-02  2.8270356E-40
 -1.8999999E-02  3.5227102E-40
 -1.7999999E-02  4.1907652E-40
 -1.7000001E-02  4.7434233E-40
 -1.6000001E-02  5.0616302E-40
 -1.5000000E-02  4.9920137E-40
 -1.4000000E-02  4.3453985E-40
 -1.3000000E-02  2.9013324E-40
 -1.2000000E-02  4.1405567E-41
 -1.1000000E-02 -3.3728553E-40
 -9.9999998E-03 -8.7054826E-40
 -8.9999996E-03 -1.5789425E-39
 -8.0000004E-03 -2.4750546E-39
 -7.0000002E-03 -3.5582667E-39
 -6.0000001E-03 -4.8089410E-39
 -4.9999999E-03 -6.1813601E-39
 -4.0000002E-03 -7.5963871E-39
 -3.0000000E-03 -8.9338592E-39
 -2.0000001E-03 -1.0025758E-38
 -1.0000000E-03 -1.0650821E-38
  2.7755576E-17 -1.0532007E-38
  1.0000000E-03 -9.3380372E-39
  2.0000001E-03 -6.6908386E-39
  3.0000000E-03 -2.1806264E-39
  4.0000002E-03  4.6097016E-39
  4.9999999E-03  1.4068923E-38
  6.0000001E-03  2.6509403E-38
  7.0000002E-03  4.2105678E-38
  8.0000004E-03  6.0819879E-38
  8.9999996E-03  8.2315265E-38
  9.9999998E-03  1.0586081E-37
  1.1000000E-02  1.3023189E-37
  1.2000000E-02  1.5361406E-37
  1.3000000E-02  1.7351993E-37
  1.4000000E-02  1.8673146E-37
  1.5000000E-02  1.8928305E-37
  1.6000001E-02  1.7650282E-37
  1.7000001E-02  1.4313082E-37
  1.7999999E-02  8.3535011E-38
  1.8999999E-02 -7.9563499E-39
  2.0000000E-02 -1.3658971E-37
  2.1000000E-02 -3.0657646E-37
  2.2000000E-02 -5.2033490E-37
  2.3000000E-02 -7.7759204E-37
  2.4000000E-02 -1.0743658E-36
  2.5000000E-02 -1.4018690E-36
  2.6000001E-02 -1.7453955E-36
  2.7000001E-02 -2.0832724E-36
  2.8000001E-02 -2.3859906E-36
  2.8999999E-02 -2.6156464E-36
  2.9999999E-02 -2.7258546E-36
  3.0999999E-02 -2.6623096E-36
  3.2000002E-02 -2.3641852E-36
  3.3000000E-02 -1.7665568E-36
  3.4000002E-02 -8.0402237E-37
  3.5000000E-02  5.8433913E-37
  3.5999998E-02  2.4485939E-36
  3.7000000E-02  4.8201589E-36
  3.7999999E-02  7.7027065E-36
  3.9000001E-02  1.1062014E-35
  3.9999999E-02  1.4815179E-35
  4.1000001E-02  1.8819814E-35
  4.1999999E-02  2.2864011E-35
  4.3000001E-02  2.6658177E-35
  4.4000000E-02  2.9829851E-35
  4.5000002E-02  3.1923075E-35
  4.6000000E-02  3.2403710E-35
  4.6999998E-02  3.0672424E-35
  4.8000000E-02  2.6086825E-35
  4.8999999E-02  1.7994184E-35
  5.0000001E-02  5.7757718E-36
  5.0999999E-02 -1.1096680E-35
  5.2000001E-02 -3.2992459E-35
  5.2999999E-02 -6.0042570E-35
  5.4000001E-02 -9.2051757E-35
  5.5000000E-02 -1.2840550E-34
  5.6000002E-02 -1.6797710E-34
  5.7000000E-02 -2.0904140E-34
  5.7999998E-02 -2.4920347E-34
  5.9000000E-02 -2.8535208E-34
  5.9999999E-02 -3.1364878E-34
  6.1000001E-02 -3.2956472E-34
  6.1999999E-02 -3.2797686E-34
  6.3000001E-02 -3.0333593E-34
  6.4000003E-02 -2.4991570E-34
  6.4999998E-02 -1.6215142E-34
  6.6000000E-02 -3.5071634E-35
  6.7000002E-02  1.3517969E-34
  6.8000004E-02  3.5073686E-34
  6.8999998E-02  6.1134049E-34
  7.0000000E-02  9.1362415E-34
  7.1000002E-02  1.2503971E-33
  7.1999997E-02  1.6099685E-33
  7.2999999E-02  1.9755716E-33
  7.4000001E-02  2.3249588E-33
  7.5000003E-02  2.6302358E-33
  7.5999998E-02  2.8580235E-33
  7.7000000E-02  2.9700301E-33
  7.8000002E-02  2.9241061E-33
  7.9000004E-02  2.6758639E-33
  7.9999998E-02  2.1809033E-33
  8.1000000E-02  1.3976739E-33
  8.2000002E-02  2.9097932E-34
  8.2999997E-02 -1.1639470E-33
  8.3999999E-02 -2.9768742E-33
  8.5000001E-02 -5.1376847E-33
  8.6000003E-02 -7.6113876E-33
  8.6999997E-02 -1.0333315E-32
  8.8000000E-02 -1.3204872E-32
  8.9000002E-02 -1.6090245E-32
  9.0000004E-02 -1.8814556E-32
  9.0999998E-02 -2.1163946E-32
  9.2000000E-02 -2.2888130E-32
  9.3000002E-02 -2.3705885E-32
  9.3999997E-02 -2.3313972E-32
  9.4999999E-02 -2.1399778E-32
  9.6000001E-02 -1.7657938E-32
  9.7000003E-02 -1.1810946E-32
  9.7999997E-02 -3.6334560E-33
  9.8999999E-02  7.0201059E-33
  0.1000000      2.0185595E-32
  0.1010000      3.5757994E-32
  0.1020000      5.3460731E-32
  0.1030000      7.2817255E-32
  0.1040000      9.3127511E-32
  0.1050000      1.1345154E-31
  0.1060000      1.3260336E-31
  0.1070000      1.4915782E-31
  0.1080000      1.6147362E-31
  0.1090000      1.6773446E-31
  0.1100000      1.6601141E-31
  0.1110000      1.5434688E-31
  0.1120000      1.3086157E-31
  0.1130000      9.3883090E-32
  0.1140000      4.2094165E-32
  0.1150000     -2.5303462E-32
  0.1160000     -1.0841550E-31
  0.1170000     -2.0647897E-31
  0.1180000     -3.1769444E-31
  0.1190000     -4.3907681E-31
  0.1200000     -5.6633879E-31
  0.1210000     -6.9382139E-31
  0.1220000     -8.1448574E-31
  0.1230000     -9.1998222E-31
  0.1240000     -1.0008093E-30
  0.1250000     -1.0465766E-30
  0.1260000     -1.0463769E-30
  0.1270000     -9.8927649E-31
  0.1280000     -8.6491774E-31
  0.1290000     -6.6422916E-31
  0.1300000     -3.8022510E-31
  0.1310000     -8.8702172E-33
  0.1320000      4.5002292E-31
  0.1330000      9.9190997E-31
  0.1340000      1.6066946E-30
  0.1350000      2.2780334E-30
  0.1360000      2.9828299E-30
  0.1370000      3.6909917E-30
  0.1380000      4.3655216E-30
  0.1390000      4.9629981E-30
  0.1400000      5.4345312E-30
  0.1410000      5.7272075E-30
  0.1420000      5.7860800E-30
  0.1430000      5.5566957E-30
  0.1440000      4.9881330E-30
  0.1450000      4.0365005E-30
  0.1460000      2.6688010E-30
  0.1470000      8.6701586E-31
  0.1480000     -1.3677594E-30
  0.1490000     -4.0113446E-30
  0.1500000     -7.0129165E-30
  0.1510000     -1.0292158E-29
  0.1520000     -1.3737393E-29
  0.1530000     -1.7205036E-29
  0.1540000     -2.0520626E-29
  0.1550000     -2.3481737E-29
  0.1560000     -2.5863000E-29
  0.1570000     -2.7423332E-29
  0.1580000     -2.7915476E-29
  0.1590000     -2.7097825E-29
  0.1600000     -2.4748275E-29
  0.1610000     -2.0679808E-29
  0.1620000     -1.4757325E-29
  0.1630000     -6.9150086E-30
  0.1640000      2.8265143E-30
  0.1650000      1.4344278E-29
  0.1660000      2.7399375E-29
  0.1670000      4.1626893E-29
  0.1680000      5.6530498E-29
  0.1690000      7.1483014E-29
  0.1700000      8.5733993E-29
  0.1710000      9.8425276E-29
  0.1720000      1.0861518E-28
  0.1730000      1.1531193E-28
  0.1740000      1.1751565E-28
  0.1750000      1.1426942E-28
  0.1760000      1.0471708E-28
  0.1770000      8.8167002E-29
  0.1780000      6.4159052E-29
  0.1790000      3.2532014E-29
  0.1800000     -6.5124358E-30
  0.1810000     -5.2352457E-29
  0.1820000     -1.0390073E-28
  0.1830000     -1.5957503E-28
  0.1840000     -2.1728951E-28
  0.1850000     -2.7447075E-28
  0.1860000     -3.2810280E-28
  0.1870000     -3.7480352E-28
  0.1880000     -4.1093437E-28
  0.1890000     -4.3274365E-28
  0.1900000     -4.3654250E-28
  0.1910000     -4.1890912E-28
  0.1920000     -3.7691672E-28
  0.1930000     -3.0837617E-28
  0.1940000     -2.1208528E-28
  0.1950000     -8.8070501E-29
  0.1960000      6.2192015E-29
  0.1970000      2.3559121E-28
  0.1980000      4.2724825E-28
  0.1990000      6.3045317E-28
  0.2000000      8.3668531E-28
  0.2010000      1.0357329E-27
  0.2020000      1.2159242E-27
  0.2030000      1.3644747E-27
  0.2040000      1.4679570E-27
  0.2050000      1.5128892E-27
  0.2060000      1.4864301E-27
  0.2070000      1.3771707E-27
  0.2080000      1.1759864E-27
  0.2090000      8.7693118E-28
  0.2100000      4.7812058E-28
  0.2110000     -1.7433668E-29
  0.2120000     -6.0109660E-28
  0.2130000     -1.2580434E-27
  0.2140000     -1.9669122E-27
  0.2150000     -2.6997316E-27
  0.2160000     -3.4221799E-27
  0.2170000     -4.0942166E-27
  0.2180000     -4.6711224E-27
  0.2190000     -5.1049685E-27
  0.2200000     -5.3465102E-27
  0.2210000     -5.3474886E-27
  0.2220000     -5.0632937E-27
  0.2230000     -4.4559193E-27
  0.2240000     -3.4971101E-27
  0.2250000     -2.1715650E-27
  0.2260000     -4.8007588E-28
  0.2270000      1.5576039E-27
  0.2280000      3.9003325E-27
  0.2290000      6.4837872E-27
  0.2300000      9.2195222E-27
  0.2310000      1.1995067E-26
  0.2320000      1.4675233E-26
  0.2330000      1.7104772E-26
  0.2340000      1.9112519E-26
  0.2350000      2.0517020E-26
  0.2360000      2.1133702E-26
  0.2370000      2.0783397E-26
  0.2380000      1.9302163E-26
  0.2390000      1.6552017E-26
  0.2400000      1.2432360E-26
  0.2410000      6.8915089E-27
  0.2420000     -6.2040655E-29
  0.2430000     -8.3493485E-27
  0.2440000     -1.7812316E-26
  0.2450000     -2.8207244E-26
  0.2460000     -3.9201340E-26
  0.2470000     -5.0372876E-26
  0.2480000     -6.1215483E-26
  0.2490000     -7.1147254E-26
  0.2500000     -7.9524858E-26
  0.2510000     -8.5662979E-26
  0.2520000     -8.8859024E-26
  0.2530000     -8.8422741E-26
  0.2540000     -8.3710332E-26
  0.2550000     -7.4162225E-26
  0.2560000     -5.9343411E-26
  0.2570000     -3.8984618E-26
  0.2580000     -1.3023237E-26
  0.2590000      1.8358585E-26
  0.2600000      5.4700355E-26
  0.2610000      9.5236582E-26
  0.2620000      1.3887932E-25
  0.2630000      1.8421230E-25
  0.2640000      2.2949852E-25
  0.2650000      2.7270327E-25
  0.2660000      3.1153424E-25
  0.2670000      3.4349895E-25
  0.2680000      3.6598115E-25
  0.2690000      3.7633406E-25
  0.2700000      3.7199074E-25
  0.2710000      3.5058825E-25
  0.2720000      3.1010361E-25
  0.2730000      2.4899682E-25
  0.2740000      1.6635548E-25
  0.2750000      6.2036995E-26
  0.2760000     -6.3200547E-26
  0.2770000     -2.0758382E-25
  0.2780000     -3.6823492E-25
  0.2790000     -5.4111416E-25
  0.2800000     -7.2100210E-25
  0.2810000     -9.0152927E-25
  0.2820000     -1.0752564E-24
  0.2830000     -1.2338129E-24
  0.2840000     -1.3680956E-24
  0.2850000     -1.4685273E-24
  0.2860000     -1.5253751E-24
  0.2870000     -1.5291274E-24
  0.2880000     -1.4709121E-24
  0.2890000     -1.3429645E-24
  0.2900000     -1.1391116E-24
  0.2910000     -8.5527155E-25
  0.2920000     -4.8994499E-25
  0.2930000     -4.4676003E-26
  0.2940000      4.7553995E-25
  0.2950000      1.0619202E-24
  0.2960000      1.7016631E-24
  0.2970000      2.3778400E-24
  0.2980000      3.0694321E-24
  0.2990000      3.7515401E-24
  0.3000000      4.3957712E-24
  0.3010000      4.9708279E-24
  0.3020000      5.4432941E-24
  0.3030000      5.7786250E-24
  0.3040000      5.9423231E-24
  0.3050000      5.9012921E-24
  0.3060000      5.6253352E-24
  0.3070000      5.0887536E-24
  0.3080000      4.2720246E-24
  0.3090000      3.1634709E-24
  0.3100000      1.7608732E-24
  0.3110000      7.2968592E-26
  0.3120000     -1.8792712E-24
  0.3130000     -4.0616267E-24
  0.3140000     -6.4259923E-24
  0.3150000     -8.9101642E-24
  0.3160000     -1.1438145E-23
  0.3170000     -1.3921006E-23
  0.3180000     -1.6258379E-23
  0.3190000     -1.8340573E-23
  0.3200000     -2.0051386E-23
  0.3210000     -2.1271511E-23
  0.3220000     -2.1882606E-23
  0.3230000     -2.1771856E-23
  0.3240000     -2.0837015E-23
  0.3250000     -1.8991732E-23
  0.3260000     -1.6171062E-23
  0.3270000     -1.2336927E-23
  0.3280000     -7.4833949E-24
  0.3290000     -1.6414048E-24
  0.3300000      5.1171060E-24
  0.3310000      1.2676124E-23
  0.3320000      2.0873622E-23
  0.3330000      2.9501094E-23
  0.3340000      3.8304744E-23
  0.3350000      4.6988503E-23
  0.3360000      5.5219020E-23
  0.3370000      6.2632773E-23
  0.3380000      6.8845147E-23
  0.3390000      7.3461694E-23
  0.3400000      7.6091125E-23
  0.3410000      7.6360038E-23
  0.3420000      7.3929065E-23
  0.3430000      6.8509717E-23
  0.3440000      5.9881933E-23
  0.3450000      4.7911227E-23
  0.3460000      3.2565264E-23
  0.3470000      1.3928672E-23
  0.3480000     -7.7842144E-24
  0.3490000     -3.2219768E-23
  0.3500000     -5.8879164E-23
  0.3510000     -8.7117008E-23
  0.3520000     -1.1614514E-22
  0.3530000     -1.4504191E-22
  0.3540000     -1.7276764E-22
  0.3550000     -1.9818637E-22
  0.3560000     -2.2009373E-22
  0.3570000     -2.3725099E-22
  0.3580000     -2.4842462E-22
  0.3590000     -2.5243087E-22
  0.3600000     -2.4818445E-22
  0.3610000     -2.3474913E-22
  0.3620000     -2.1139050E-22
  0.3630000     -1.7762754E-22
  0.3640000     -1.3328198E-22
  0.3650000     -7.8522836E-23
  0.3660000     -1.3904565E-23
  0.3670000      5.9603616E-23
  0.3680000      1.4059990E-22
  0.3690000      2.2724452E-22
  0.3700000      3.1726951E-22
  0.3710000      4.0800434E-22
  0.3720000      4.9641944E-22
  0.3730000      5.7918693E-22
  0.3740000      6.5275925E-22
  0.3750000      7.1346600E-22
  0.3760000      7.5762479E-22
  0.3770000      7.8166811E-22
  0.3780000      7.8227981E-22
  0.3790000      7.5654013E-22
  0.3800000      7.0207308E-22
  0.3810000      6.1719407E-22
  0.3820000      5.0105087E-22
  0.3830000      3.5375068E-22
  0.3840000      1.7647162E-22
  0.3850000     -2.8450565E-23
  0.3860000     -2.5746570E-22
  0.3870000     -5.0578676E-22
  0.3880000     -7.6740712E-22
  0.3890000     -1.0351619E-21
  0.3900000     -1.3008342E-21
  0.3910000     -1.5553121E-21
  0.3920000     -1.7887904E-21
  0.3930000     -1.9910221E-21
  0.3940000     -2.1516109E-21
  0.3950000     -2.2603421E-21
  0.3960000     -2.3075494E-21
  0.3970000     -2.2844937E-21
  0.3980000     -2.1837655E-21
  0.3990000     -1.9996809E-21
  0.4000000     -1.7286635E-21
  0.4010000     -1.3696023E-21
  0.4020000     -9.2416360E-22
  0.4030000     -3.9704674E-22
  0.4040000      2.0383362E-22
  0.4050000      8.6725081E-22
  0.4060000      1.5786705E-21
  0.4070000      2.3203620E-21
  0.4080000      3.0716298E-21
  0.4090000      3.8091655E-21
  0.4100000      4.5075245E-21
  0.4110000      5.1397275E-21
  0.4120000      5.6779685E-21
  0.4130000      6.0944345E-21
  0.4140000      6.3622100E-21
  0.4150000      6.4562440E-21
  0.4160000      6.3543663E-21
  0.4170000      6.0383147E-21
  0.4180000      5.4947395E-21
  0.4190000      4.7161666E-21
  0.4200000      3.7018546E-21
  0.4210000      2.4585381E-21
  0.4220000      1.0010061E-21
  0.4230000     -6.4752944E-22
  0.4240000     -2.4552807E-21
  0.4250000     -4.3820107E-21
  0.4260000     -6.3794249E-21
  0.4270000     -8.3918741E-21
  0.4280000     -1.0357358E-20
  0.4290000     -1.2208847E-20
  0.4300000     -1.3875874E-20
  0.4310000     -1.5286430E-20
  0.4320000     -1.6369085E-20
  0.4330000     -1.7055307E-20
  0.4340000     -1.7281916E-20
  0.4350000     -1.6993649E-20
  0.4360000     -1.6145700E-20
  0.4370000     -1.4706205E-20
  0.4380000     -1.2658557E-20
  0.4390000     -1.0003469E-20
  0.4400000     -6.7607366E-21
  0.4410000     -2.9705023E-21
  0.4420000      1.3059030E-21
  0.4430000      5.9857810E-21
  0.4440000      1.0965481E-20
  0.4450000      1.6121553E-20
  0.4460000      2.1312601E-20
  0.4470000      2.6381913E-20
  0.4480000      3.1160792E-20
  0.4490000      3.5472620E-20
  0.4500000      3.9137556E-20
  0.4510000      4.1977775E-20
  0.4520000      4.3823189E-20
  0.4530000      4.4517471E-20
  0.4540000      4.3924208E-20
  0.4550000      4.1933104E-20
  0.4560000      3.8465870E-20
  0.4570000      3.3481812E-20
  0.4580000      2.6982703E-20
  0.4590000      1.9016855E-20
  0.4600000      9.6821265E-21
  0.4610000     -8.7229689E-22
  0.4620000     -1.2445524E-20
  0.4630000     -2.4786162E-20
  0.4640000     -3.7595162E-20
  0.4650000     -5.0530376E-20
  0.4660000     -6.3212949E-20
  0.4670000     -7.5235321E-20
  0.4680000     -8.6170946E-20
  0.4690000     -9.5585502E-20
  0.4700000     -1.0304927E-19
  0.4710000     -1.0815076E-19
  0.4720000     -1.1051072E-19
  0.4730000     -1.0979687E-19
  0.4740000     -1.0573803E-19
  0.4750000     -9.8138427E-20
  0.4760000     -8.6890218E-20
  0.4770000     -7.1985141E-20
  0.4780000     -5.3523810E-20
  0.4790000     -3.1722784E-20
  0.4800000     -6.9187414E-21
  0.4810000      2.0430710E-20
  0.4820000      4.9749744E-20
  0.4830000      8.0350748E-20
  0.4840000      1.1144485E-19
  0.4850000      1.4215631E-19
  0.4860000      1.7154090E-19
  0.4870000      1.9860790E-19
  0.4880000      2.2234558E-19
  0.4890000      2.4174938E-19
  0.4900000      2.5585250E-19
  0.4910000      2.6375809E-19
  0.4920000      2.6467213E-19
  0.4930000      2.5793585E-19
  0.4940000      2.4305754E-19
  0.4950000      2.1974154E-19
  0.4960000      1.8791445E-19
  0.4970000      1.4774645E-19
  0.4980000      9.9667716E-20
  0.4990000      4.4378162E-20
  0.5000000     -1.7149634E-20
  0.5010000     -8.3675665E-20
  0.5020000     -1.5370591E-19
  0.5030000     -2.2551425E-19
  0.5040000     -2.9717342E-19
  0.5050000     -3.6659443E-19
  0.5060000     -4.3157352E-19
  0.5070000     -4.8984726E-19
  0.5080000     -5.3915353E-19
  0.5090000     -5.7729767E-19
  0.5100000     -6.0222171E-19
  0.5110000     -6.1207612E-19
  0.5120000     -6.0529096E-19
  0.5130000     -5.8064434E-19
  0.5140000     -5.3732712E-19
  0.5150000     -4.7500014E-19
  0.5160000     -3.9384287E-19
  0.5170000     -2.9459068E-19
  0.5180000     -1.7855911E-19
  0.5190000     -4.7653455E-20
  0.5200000      9.5638661E-20
  0.5210000      2.4827133E-19
  0.5220000      4.0668293E-19
  0.5230000      5.6685700E-19
  0.5240000      7.2440099E-19
  0.5250000      8.7464144E-19
  0.5260000      1.0127360E-18
  0.5270000      1.1337985E-18
  0.5280000      1.2330338E-18
  0.5290000      1.3058831E-18
  0.5300000      1.3481714E-18
  0.5310000      1.3562566E-18
  0.5320000      1.3271748E-18
  0.5330000      1.2587770E-18
  0.5340000      1.1498531E-18
  0.5350000      1.0002388E-18
  0.5360000      8.1090113E-19
  0.5370000      5.8399691E-19
  0.5380000      3.2290427E-19
  0.5390000      3.2219376E-20
  0.5400000     -2.8228011E-19
  0.5410000     -6.1370799E-19
  0.5420000     -9.5418003E-19
  0.5430000     -1.2949601E-18
  0.5440000     -1.6266410E-18
  0.5450000     -1.9393589E-18
  0.5460000     -2.2230340E-18
  0.5470000     -2.4676382E-18
  0.5480000     -2.6634792E-18
  0.5490000     -2.8014922E-18
  0.5500000     -2.8735446E-18
  0.5510000     -2.8727257E-18
  0.5520000     -2.7936292E-18
  0.5530000     -2.6326150E-18
  0.5540000     -2.3880353E-18
  0.5550000     -2.0604246E-18
  0.5560000     -1.6526422E-18
  0.5570000     -1.1699584E-18
  0.5580000     -6.2007997E-19
  0.5590000     -1.3110985E-20
  0.5600000      6.3855857E-19
  0.5610000      1.3204322E-18
  0.5620000      2.0161613E-18
  0.5630000      2.7078638E-18
  0.5640000      3.3765132E-18
  0.5650000      4.0023808E-18
  0.5660000      4.5655307E-18
  0.5670000      5.0463531E-18
  0.5680000      5.4261261E-18
  0.5690000      5.6875897E-18
  0.5700000      5.8155165E-18
  0.5710000      5.7972726E-18
  0.5720000      5.6233301E-18
  0.5730000      5.2877405E-18
  0.5740000      4.7885399E-18
  0.5750000      4.1280577E-18
  0.5760000      3.3131497E-18
  0.5770000      2.3552994E-18
  0.5780000      1.2706111E-18
  0.5790000      7.9675316E-20
  0.5800000     -1.1927058E-18
  0.5810000     -2.5179171E-18
  0.5820000     -3.8640650E-18
  0.5830000     -5.1966381E-18
  0.5840000     -6.4792755E-18
  0.5850000     -7.6746396E-18
  0.5860000     -8.7453670E-18
  0.5870000     -9.6550845E-18
  0.5880000     -1.0369455E-17
  0.5890000     -1.0857236E-17
  0.5900000     -1.1091326E-17
  0.5910000     -1.1049743E-17
  0.5920000     -1.0716544E-17
  0.5930000     -1.0082615E-17
  0.5940000     -9.1463403E-18
  0.5950000     -7.9140977E-18
  0.5960000     -6.4005581E-18
  0.5970000     -4.6287931E-18
  0.5980000     -2.6301430E-18
  0.5990000     -4.4386026E-19
  0.6000000      1.8834890E-18
  0.6010000      4.2988556E-18
  0.6020000      6.7437632E-18
  0.6030000      9.1555750E-18
  0.6040000      1.1468944E-17
  0.6050000      1.3617430E-17
  0.6060000      1.5535221E-17
  0.6070000      1.7158945E-17
  0.6080000      1.8429533E-17
  0.6090000      1.9294023E-17
  0.6100000      1.9707350E-17
  0.6110000      1.9633981E-17
  0.6120000      1.9049404E-17
  0.6130000      1.7941385E-17
  0.6140000      1.6310953E-17
  0.6150000      1.4173085E-17
  0.6160000      1.1557066E-17
  0.6170000      8.5064252E-18
  0.6180000      5.0785296E-18
  0.6190000      1.3437622E-18
  0.6200000     -2.6157031E-18
  0.6210000     -6.7075025E-18
  0.6220000     -1.0831062E-17
  0.6230000     -1.4879879E-17
  0.6240000     -1.8744103E-17
  0.6250000     -2.2313323E-17
  0.6260000     -2.5479527E-17
  0.6270000     -2.8140129E-17
  0.6280000     -3.0201019E-17
  0.6290000     -3.1579499E-17
  0.6300000     -3.2207091E-17
  0.6310000     -3.2032089E-17
  0.6320000     -3.1021751E-17
  0.6330000     -2.9164072E-17
  0.6340000     -2.6469151E-17
  0.6350000     -2.2969934E-17
  0.6360000     -1.8722411E-17
  0.6370000     -1.3805165E-17
  0.6380000     -8.3183218E-18
  0.6390000     -2.3818194E-18
  0.6400000      3.8669188E-18
  0.6410000      1.0275918E-17
  0.6420000      1.6682112E-17
  0.6430000      2.2915269E-17
  0.6440000      2.8802307E-17
  0.6450000      3.4171857E-17
  0.6460000      3.8859039E-17
  0.6470000      4.2710230E-17
  0.6480000      4.5587773E-17
  0.6490000      4.7374440E-17
  0.6500000      4.7977584E-17
  0.6510000      4.7332704E-17
  0.6520000      4.5406551E-17
  0.6530000      4.2199360E-17
  0.6540000      3.7746346E-17
  0.6550000      3.2118318E-17
  0.6560000      2.5421252E-17
  0.6570000      1.7795011E-17
  0.6580000      9.4108983E-18
  0.6590000      4.6842049E-19
  0.6600000     -8.8090384E-18
  0.6610000     -1.8179302E-17
  0.6620000     -2.7387262E-17
  0.6630000     -3.6171387E-17
  0.6640000     -4.4270670E-17
  0.6650000     -5.1431927E-17
  0.6660000     -5.7417141E-17
  0.6670000     -6.2010825E-17
  0.6680000     -6.5027070E-17
  0.6690000     -6.6315976E-17
  0.6700000     -6.5769633E-17
  0.6710000     -6.3326982E-17
  0.6720000     -5.8977779E-17
  0.6730000     -5.2765193E-17
  0.6740000     -4.4787191E-17
  0.6750000     -3.5196396E-17
  0.6760000     -2.4198325E-17
  0.6770000     -1.2048346E-17
  0.6780000      9.5322619E-19
  0.6790000      1.4467266E-17
  0.6800000      2.8123509E-17
  0.6810000      4.1529370E-17
  0.6820000      5.4279919E-17
  0.6830000      6.5968633E-17
  0.6840000      7.6198746E-17
  0.6850000      8.4595013E-17
  0.6860000      9.0815286E-17
  0.6870000      9.4562030E-17
  0.6880000      9.5593002E-17
  0.6890000      9.3731117E-17
  0.6900000      8.8872927E-17
  0.6910000      8.0995600E-17
  0.6920000      7.0162035E-17
  0.6930000      5.6523859E-17
  0.6940000      4.0322203E-17
  0.6950000      2.1886043E-17
  0.6960000      1.6279719E-18
  0.6970000     -1.9962500E-17
  0.6980000     -4.2328109E-17
  0.6990000     -6.4855493E-17
  0.7000000     -8.6888924E-17
  0.7010000     -1.0774605E-16
  0.7020000     -1.2673536E-16
  0.7030000     -1.4317476E-16
  0.7040000     -1.5641103E-16
  0.7050000     -1.6583984E-16
  0.7060000     -1.7092533E-16
  0.7070000     -1.7121920E-16
  0.7080000     -1.6637859E-16
  0.7090000     -1.5618200E-16
  0.7100000     -1.4054315E-16
  0.7110000     -1.1952191E-16
  0.7120000     -9.3332013E-17
  0.7130000     -6.2345059E-17
  0.7140000     -2.7090661E-17
  0.7150000      1.1747791E-17
  0.7160000      5.3341496E-17
  0.7170000      9.6729244E-17
  0.7180000      1.4083447E-16
  0.7190000      1.8448674E-16
  0.7200000      2.2644671E-16
  0.7210000      2.6543482E-16
  0.7220000      3.0016235E-16
  0.7230000      3.2936529E-16
  0.7240000      3.5183943E-16
  0.7250000      3.6647553E-16
  0.7260000      3.7229531E-16
  0.7270000      3.6848548E-16
  0.7280000      3.5442961E-16
  0.7290000      3.2973772E-16
  0.7300000      2.9427089E-16
  0.7310000      2.4816183E-16
  0.7320000      1.9182880E-16
  0.7330000      1.2598408E-16
  0.7340000      5.1634860E-17
  0.7350000     -2.9923063E-17
  0.7360000     -1.1711956E-16
  0.7370000     -2.0813217E-16
  0.7380000     -3.0091571E-16
  0.7390000     -3.9323949E-16
  0.7400000     -4.8273165E-16
  0.7410000     -5.6692937E-16
  0.7420000     -6.4333502E-16
  0.7430000     -7.0947601E-16
  0.7440000     -7.6296847E-16
  0.7450000     -8.0158190E-16
  0.7460000     -8.2330385E-16
  0.7470000     -8.2640505E-16
  0.7480000     -8.0949806E-16
  0.7490000     -7.7159482E-16
  0.7500000     -7.1215513E-16
  0.7510000     -6.3112843E-16
  0.7520000     -5.2898589E-16
  0.7530000     -4.0674136E-16
  0.7540000     -2.6596072E-16
  0.7550000     -1.0875864E-16
  0.7560000      6.2218957E-17
  0.7570000      2.4382524E-16
  0.7580000      4.3245789E-16
  0.7590000      6.2411727E-16
  0.7600000      8.1447708E-16
  0.7610000      9.9896864E-16