 -0.2050000      0.0000000E+00
 -0.2040000      0.0000000E+00
 -0.2030000      0.0000000E+00
 -0.2020000      0.0000000E+00
 -0.2010000      0.0000000E+00
 -0.2000000      0.0000000E+00
 -0.1990000      0.0000000E+00
 -0.1980000      0.0000000E+00
 -0.1970000      0.0000000E+00
 -0.1960000      0.0000000E+00
 -0.1950000      0.0000000E+00
 -0.1940000      0.0000000E+00
 -0.1930000      0.0000000E+00
 -0.1920000      0.0000000E+00
 -0.1910000      0.0000000E+00
 -0.1900000      0.0000000E+00
 -0.1890000      0.0000000E+00
 -0.1880000      0.0000000E+00
 -0.1870000      0.0000000E+00
 -0.1860000      0.0000000E+00
 -0.1850000      0.0000000E+00
 -0.1840000      0.0000000E+00
 -0.1830000      0.0000000E+00
 -0.1820000      0.0000000E+00
 -0.1810000      0.0000000E+00
 -0.1800000      0.0000000E+00
 -0.1790000      0.0000000E+00
 -0.1780000      0.0000000E+00
 -0.1770000      0.0000000E+00
 -0.1760000      0.0000000E+00
 -0.1750000      0.0000000E+00
 -0.1740000      0.0000000E+00
 -0.1730000      0.0000000E+00
 -0.1720000      0.0000000E+00
 -0.1710000      0.0000000E+00
 -0.1700000      0.0000000E+00
 -0.1690000      0.0000000E+00
 -0.1680000      0.0000000E+00
 -0.1670000      0.0000000E+00
 -0.1660000      0.0000000E+00
 -0.1650000      0.0000000E+00
 -0.1640000      0.0000000E+00
 -0.1630000      0.0000000E+00
 -0.1620000      0.0000000E+00
 -0.1610000      0.0000000E+00
 -0.1600000      0.0000000E+00
 -0.1590000      0.0000000E+00
 -0.1580000      0.0000000E+00
 -0.1570000      0.0000000E+00
 -0.1560000      0.0000000E+00
 -0.1550000      0.0000000E+00
 -0.1540000      0.0000000E+00
 -0.1530000      0.0000000E+00
 -0.1520000      0.0000000E+00
 -0.1510000      0.0000000E+00
 -0.1500000      0.0000000E+00
 -0.1490000      0.0000000E+00
 -0.1480000      0.0000000E+00
 -0.1470000      0.0000000E+00
 -0.1460000      0.0000000E+00
 -0.1450000      0.0000000E+00
 -0.1440000      0.0000000E+00
 -0.1430000      0.0000000E+00
 -0.1420000      0.0000000E+00
 -0.1410000      0.0000000E+00
 -0.1400000      0.0000000E+00
 -0.1390000      0.0000000E+00
 -0.1380000      0.0000000E+00
 -0.1370000      0.0000000E+00
 -0.1360000      0.0000000E+00
 -0.1350000      0.0000000E+00
 -0.1340000      0.0000000E+00
 -0.1330000      0.0000000E+00
 -0.1320000      0.0000000E+00
 -0.1310000      0.0000000E+00
 -0.1300000      0.0000000E+00
 -0.1290000      0.0000000E+00
 -0.1280000      0.0000000E+00
 -0.1270000      0.0000000E+00
 -0.1260000      0.0000000E+00
 -0.1250000      0.0000000E+00
 -0.1240000      0.0000000E+00
 -0.1230000      0.0000000E+00
 -0.1220000      0.0000000E+00
 -0.1210000      0.0000000E+00
 -0.1200000      0.0000000E+00
 -0.1190000      0.0000000E+00
 -0.1180000      0.0000000E+00
 -0.1170000      0.0000000E+00
 -0.1160000      0.0000000E+00
 -0.1150000      0.0000000E+00
 -0.1140000      0.0000000E+00
 -0.1130000      0.0000000E+00
 -0.1120000      0.0000000E+00
 -0.1110000      0.0000000E+00
 -0.1100000      0.0000000E+00
 -0.1090000      0.0000000E+00
 -0.1080000      0.0000000E+00
 -0.1070000      0.0000000E+00
 -0.1060000      0.0000000E+00
 -0.1050000      0.0000000E+00
 -0.1040000      0.0000000E+00
 -0.1030000      0.0000000E+00
 -0.1020000      0.0000000E+00
 -0.1010000      0.0000000E+00
 -0.1000000      0.0000000E+00
 -9.8999999E-02  0.0000000E+00
 -9.7999997E-02  0.0000000E+00
 -9.7000003E-02  0.0000000E+00
 -9.6000001E-02  0.0000000E+00
 -9.4999999E-02  0.0000000E+00
 -9.3999997E-02  0.0000000E+00
 -9.3000002E-02  0.0000000E+00
 -9.2000000E-02  0.0000000E+00
 -9.0999998E-02  0.0000000E+00
 -9.0000004E-02  0.0000000E+00
 -8.9000002E-02  0.0000000E+00
 -8.8000000E-02  0.0000000E+00
 -8.6999997E-02  0.0000000E+00
 -8.6000003E-02  0.0000000E+00
 -8.5000001E-02  0.0000000E+00
 -8.3999999E-02  0.0000000E+00
 -8.2999997E-02  0.0000000E+00
 -8.2000002E-02  0.0000000E+00
 -8.1000000E-02  0.0000000E+00
 -7.9999998E-02  0.0000000E+00
 -7.9000004E-02  0.0000000E+00
 -7.8000002E-02  0.0000000E+00
 -7.7000000E-02  0.0000000E+00
 -7.5999998E-02 -1.4012985E-45
 -7.5000003E-02 -1.4012985E-45
 -7.4000001E-02 -2.8025969E-45
 -7.2999999E-02 -4.2038954E-45
 -7.1999997E-02 -4.2038954E-45
 -7.1000002E-02 -5.6051939E-45
 -7.0000000E-02 -7.0064923E-45
 -6.8999998E-02 -7.0064923E-45
 -6.8000004E-02 -9.8090893E-45
 -6.7000002E-02 -8.4077908E-45
 -6.6000000E-02 -2.8025969E-45
 -6.4999998E-02  4.2038954E-45
 -6.4000003E-02  1.1210388E-44
 -6.3000001E-02  2.2420775E-44
 -6.1999999E-02  4.2038954E-44
 -6.1000001E-02  7.2867520E-44
 -5.9999999E-02  1.0089349E-43
 -5.9000000E-02  1.3732725E-43
 -5.7999998E-02  1.7516231E-43
 -5.7000000E-02  2.1159607E-43
 -5.6000002E-02  2.4943113E-43
 -5.5000000E-02  2.8166099E-43
 -5.4000001E-02  2.9707527E-43
 -5.2999999E-02  2.9567398E-43
 -5.2000001E-02  2.5924022E-43
 -5.0999999E-02  1.8216880E-43
 -5.0000001E-02  4.4841551E-44
 -4.8999999E-02 -1.6815582E-43
 -4.8000000E-02 -4.4981681E-43
 -4.6999998E-02 -8.2396350E-43
 -4.6000000E-02 -1.2919972E-42
 -4.5000002E-02 -1.8357010E-42
 -4.4000000E-02 -2.4606801E-42
 -4.3000001E-02 -3.1010735E-42
 -4.1999999E-02 -3.7162435E-42
 -4.1000001E-02 -4.2333227E-42
 -3.9999999E-02 -4.5402070E-42
 -3.9000001E-02 -4.5205888E-42
 -3.7999999E-02 -4.0287331E-42
 -3.7000000E-02 -2.9104969E-42
 -3.5999998E-02 -9.9492191E-43
 -3.5000000E-02  1.8595231E-42
 -3.4000002E-02  5.7565341E-42
 -3.3000000E-02  1.0729742E-41
 -3.2000002E-02  1.6692267E-41
 -3.0999999E-02  2.3394678E-41
 -2.9999999E-02  3.0398368E-41
 -2.8999999E-02  3.6991477E-41
 -2.8000001E-02  4.2207110E-41
 -2.7000001E-02  4.4697217E-41
 -2.6000001E-02  4.2865720E-41
 -2.5000000E-02  3.4781629E-41
 -2.4000000E-02  1.8362615E-41
 -2.3000000E-02 -8.5156908E-42
 -2.2000000E-02 -4.7799692E-41
 -2.1000000E-02 -1.0086266E-40
 -2.0000000E-02 -1.6811238E-40
 -1.8999999E-02 -2.4850487E-40
 -1.7999999E-02 -3.3883257E-40
 -1.7000001E-02 -4.3310492E-40
 -1.6000001E-02 -5.2183514E-40
 -1.5000000E-02 -5.9134235E-40
 -1.4000000E-02 -6.2334660E-40
 -1.3000000E-02 -5.9460597E-40
 -1.2000000E-02 -4.7717015E-40
 -1.1000000E-02 -2.3911897E-40
 -9.9999998E-03  1.5387939E-40
 -8.9999996E-03  7.3601520E-40
 -8.0000004E-03  1.5376770E-39
 -7.0000002E-03  2.5803454E-39
 -6.0000001E-03  3.8701523E-39
 -4.9999999E-03  5.3900329E-39
 -4.0000002E-03  7.0905983E-39
 -3.0000000E-03  8.8801769E-39
 -2.0000001E-03  1.0614453E-38
 -1.0000000E-03  1.2086873E-38
  2.7755576E-17  1.3020655E-38
  1.0000000E-03  1.3064296E-38
  2.0000001E-03  1.1792177E-38
  3.0000000E-03  8.7127442E-39
  4.0000002E-03  3.2863055E-39
  4.9999999E-03 -5.0446563E-39
  6.0000001E-03 -1.6810655E-38
  7.0000002E-03 -3.2453532E-38
  8.0000004E-03 -5.2246965E-38
  8.9999996E-03 -7.6198732E-38
  9.9999998E-03 -1.0393625E-37
  1.1000000E-02 -1.3457902E-37
  1.2000000E-02 -1.6660382E-37
  1.3000000E-02 -1.9771182E-37
  1.4000000E-02 -2.2471076E-37
  1.5000000E-02 -2.4342727E-37
  1.6000001E-02 -2.4867097E-37
  1.7000001E-02 -2.3427215E-37
  1.7999999E-02 -1.9321962E-37
  1.8999999E-02 -1.1792629E-37
  2.0000000E-02 -6.4837099E-40
  2.1000000E-02  1.6591683E-37
  2.2000000E-02  3.8783767E-37
  2.3000000E-02  6.6895052E-37
  2.4000000E-02  1.0096655E-36
  2.5000000E-02  1.4055974E-36
  2.6000001E-02  1.8460743E-36
  2.7000001E-02  2.3125968E-36
  2.8000001E-02  2.7773571E-36
  2.8999999E-02  3.2019658E-36
  2.9999999E-02  3.5365545E-36
  3.0999999E-02  3.7194811E-36
  3.2000002E-02  3.6778584E-36
  3.3000000E-02  3.3291906E-36
  3.4000002E-02  2.5843495E-36
  3.5000000E-02  1.3521728E-36
  3.5999998E-02 -4.5413514E-37
  3.7000000E-02 -2.9086348E-36
  3.7999999E-02 -6.0623050E-36
  3.9000001E-02 -9.9307928E-36
  3.9999999E-02 -1.4480591E-35
  4.1000001E-02 -1.9614100E-35
  4.1999999E-02 -2.5154417E-35
  4.3000001E-02 -3.0830800E-35
  4.4000000E-02 -3.6266282E-35
  4.5000002E-02 -4.0968980E-35
  4.6000000E-02 -4.4329066E-35
  4.6999998E-02 -4.5623464E-35
  4.8000000E-02 -4.4030681E-35
  4.8999999E-02 -3.8657747E-35
  5.0000001E-02 -2.8581534E-35
  5.0999999E-02 -1.2906086E-35
  5.2000001E-02  9.1630438E-36
  5.2999999E-02  3.8227335E-35
  5.4000001E-02  7.4587631E-35
  5.5000000E-02  1.1812310E-34
  5.6000002E-02  1.6816087E-34
  5.7000000E-02  2.2334319E-34
  5.7999998E-02  2.8150022E-34
  5.9000000E-02  3.3953968E-34
  5.9999999E-02  3.9336651E-34
  6.1000001E-02  4.3784708E-34
  6.1999999E-02  4.6683541E-34
  6.3000001E-02  4.7327740E-34
  6.4000003E-02  4.4941087E-34
  6.4999998E-02  3.8707780E-34
  6.6000000E-02  2.7815810E-34
  6.7000002E-02  1.1513749E-34
  6.8000004E-02 -1.0819354E-34
  6.8999998E-02 -3.9591596E-34
  7.0000000E-02 -7.4905163E-34
  7.1000002E-02 -1.1645581E-33
  7.1999997E-02 -1.6342931E-33
  7.2999999E-02 -2.1440113E-33
  7.4000001E-02 -2.6724679E-33
  7.5000003E-02 -3.1907200E-33
  7.5999998E-02 -3.6617343E-33
  7.7000000E-02 -4.0404092E-33
  7.8000002E-02 -4.2741320E-33
  7.9000004E-02 -4.3039940E-33
  7.9999998E-02 -4.0667630E-33
  8.1000000E-02 -3.4977088E-33
  8.2000002E-02 -2.5343339E-33
  8.2999997E-02 -1.1210266E-33
  8.3999999E-02  7.8540986E-34
  8.5000001E-02  3.2094445E-33
  8.6000003E-02  6.1499385E-33
  8.6999997E-02  9.5729542E-33
  8.8000000E-02  1.3404631E-32
  8.9000002E-02  1.7524612E-32
  9.0000004E-02  2.1760565E-32
  9.0999998E-02  2.5884433E-32
  9.2000000E-02  2.9611196E-32
  9.3000002E-02  3.2600752E-32
  9.3999997E-02  3.4463775E-32
  9.4999999E-02  3.4772193E-32
  9.6000001E-02  3.3074785E-32
  9.7000003E-02  2.8918492E-32
  9.7999997E-02  2.1875352E-32
  9.8999999E-02  1.1575160E-32
  0.1000000     -2.2568770E-33
  0.1010000     -1.9758364E-32
  0.1020000     -4.0885316E-32
  0.1030000     -6.5367195E-32
  0.1040000     -9.2663879E-32
  0.1050000     -1.2192772E-31
  0.1060000     -1.5197414E-31
  0.1070000     -1.8126493E-31
  0.1080000     -2.0790797E-31
  0.1090000     -2.2967808E-31
  0.1100000     -2.4406225E-31
  0.1110000     -2.4833362E-31
  0.1120000     -2.3965537E-31
  0.1130000     -2.1521799E-31
  0.1140000     -1.7240711E-31
  0.1150000     -1.0900220E-31
  0.1160000     -2.3400346E-32
  0.1170000      8.5141838E-32
  0.1180000      2.1625675E-31
  0.1190000      3.6821848E-31
  0.1200000      5.3771419E-31
  0.1210000      7.1965128E-31
  0.1220000      9.0702113E-31
  0.1230000      1.0908384E-30
  0.1240000      1.2601798E-30
  0.1250000      1.4023394E-30
  0.1260000      1.5031204E-30
  0.1270000      1.5472790E-30
  0.1280000      1.5191262E-30
  0.1290000      1.4032926E-30
  0.1300000      1.1856479E-30
  0.1310000      8.5435832E-31
  0.1320000      4.0104966E-31
  0.1330000     -1.7795521E-31
  0.1340000     -8.8039298E-31
  0.1350000     -1.6968658E-30
  0.1360000     -2.6097799E-30
  0.1370000     -3.5925037E-30
  0.1380000     -4.6088399E-30
  0.1390000     -5.6129035E-30
  0.1400000     -6.5495100E-30
  0.1410000     -7.3551490E-30
  0.1420000     -7.9596142E-30
  0.1430000     -8.2883531E-30
  0.1440000     -8.2655241E-30
  0.1450000     -7.8177867E-30
  0.1460000     -6.8787206E-30
  0.1470000     -5.3937899E-30
  0.1480000     -3.3256928E-30
  0.1490000     -6.5985101E-31
  0.1500000      2.5901821E-30
  0.1510000      6.3777637E-30
  0.1520000      1.0618972E-29
  0.1530000      1.5189581E-29
  0.1540000      1.9923605E-29
  0.1550000      2.4613804E-29
  0.1560000      2.9014460E-29
  0.1570000      3.2846828E-29
  0.1580000      3.5807332E-29
  0.1590000      3.7578781E-29
  0.1600000      3.7844343E-29
  0.1610000      3.6304312E-29
  0.1620000      3.2695095E-29
  0.1630000      2.6809811E-29
  0.1640000      1.8519903E-29
  0.1650000      7.7964074E-30
  0.1660000     -5.2699206E-30
  0.1670000     -2.0451301E-29
  0.1680000     -3.7369724E-29
  0.1690000     -5.5489352E-29
  0.1700000     -7.4116013E-29
  0.1710000     -9.2405210E-29
  0.1720000     -1.0937959E-28
  0.1730000     -1.2395686E-28
  0.1740000     -1.3498838E-28
  0.1750000     -1.4130833E-28
  0.1760000     -1.4179294E-28
  0.1770000     -1.3542770E-28
  0.1780000     -1.2138105E-28
  0.1790000     -9.9081043E-29
  0.1800000     -6.8291815E-29
  0.1810000     -2.9185103E-29
  0.1820000      1.7597815E-29
  0.1830000      7.0898874E-29
  0.1840000      1.2901617E-28
  0.1850000      1.8970225E-28
  0.1860000      2.5019224E-28
  0.1870000      3.0726594E-28
  0.1880000      3.5734605E-28
  0.1890000      3.9663470E-28
  0.1900000      4.2128586E-28
  0.1910000      4.2761182E-28
  0.1920000      4.1231854E-28
  0.1930000      3.7275967E-28
  0.1940000      3.0720152E-28
  0.1950000      2.1508266E-28
  0.1960000      9.7255225E-29
  0.1970000     -4.3810720E-29
  0.1980000     -2.0387748E-28
  0.1990000     -3.7686424E-28
  0.2000000     -5.5486186E-28
  0.2010000     -7.2825618E-28
  0.2020000     -8.8597101E-28
  0.2030000     -1.0158411E-27
  0.2040000     -1.1051158E-27
  0.2050000     -1.1410924E-27
  0.2060000     -1.1118644E-27
  0.2070000     -1.0071674E-27
  0.2080000     -8.1928809E-28
  0.2090000     -5.4400549E-28
  0.2100000     -1.8150633E-28
  0.2110000      2.6277200E-28
  0.2120000      7.7743590E-28
  0.2130000      1.3446336E-27
  0.2140000      1.9398203E-27
  0.2150000      2.5318599E-27
  0.2160000      3.0835109E-27
  0.2170000      3.5523558E-27
  0.2180000      3.8921970E-27
  0.2190000      4.0549326E-27
  0.2200000      3.9929031E-27
  0.2210000      3.6616724E-27
  0.2220000      3.0231659E-27
  0.2230000      2.0490724E-27
  0.2240000      7.2436864E-28
  0.2250000     -9.4918831E-28
  0.2260000     -2.9498075E-27
  0.2270000     -5.2328564E-27
  0.2280000     -7.7287353E-27
  0.2290000     -1.0341673E-26
  0.2300000     -1.2949677E-26
  0.2310000     -1.5405859E-26
  0.2320000     -1.7541324E-26
  0.2330000     -1.9169758E-26
  0.2340000     -2.0093786E-26
  0.2350000     -2.0113120E-26
  0.2360000     -1.9034400E-26
  0.2370000     -1.6682522E-26
  0.2380000     -1.2913182E-26
  0.2390000     -7.6262034E-27
  0.2400000     -7.7914141E-28
  0.2410000      7.5994754E-27
  0.2420000      1.7397996E-26
  0.2430000      2.8411352E-26
  0.2440000      4.0333472E-26
  0.2450000      5.2753273E-26
  0.2460000      6.5155048E-26
  0.2470000      7.6923891E-26
  0.2480000      8.7357095E-26
  0.2490000      9.5681605E-26
  0.2500000      1.0107800E-25
  0.2510000      1.0271105E-25
  0.2520000      9.9766333E-26
  0.2530000      9.1492377E-26
  0.2540000      7.7247214E-26
  0.2550000      5.6548120E-26
  0.2560000      2.9122455E-26
  0.2570000     -5.0422221E-27
  0.2580000     -4.5651378E-26
  0.2590000     -9.2062718E-26
  0.2600000     -1.4325413E-25
  0.2610000     -1.9780343E-25
  0.2620000     -2.5388253E-25
  0.2630000     -3.0926902E-25
  0.2640000     -3.6137666E-25
  0.2650000     -4.0730784E-25
  0.2660000     -4.4392768E-25
  0.2670000     -4.6796151E-25
  0.2680000     -4.7611365E-25
  0.2690000     -4.6520691E-25
  0.2700000     -4.3233956E-25
  0.2710000     -3.7505628E-25
  0.2720000     -2.9152673E-25
  0.2730000     -1.8072612E-25
  0.2740000     -4.2611197E-26
  0.2750000      1.2171807E-25
  0.2760000      3.0987901E-25
  0.2770000      5.1809875E-25
  0.2780000      7.4114774E-25
  0.2790000      9.7232313E-25
  0.2800000      1.2034903E-24
  0.2810000      1.4251905E-24
  0.2820000      1.6268186E-24
  0.2830000      1.7968737E-24
  0.2840000      1.9232855E-24
  0.2850000      1.9938146E-24
  0.2860000      1.9965149E-24
  0.2870000      1.9202594E-24
  0.2880000      1.7553086E-24
  0.2890000      1.4939101E-24
  0.2900000      1.1309066E-24
  0.2910000      6.6433399E-25
  0.2920000      9.5981323E-26
  0.2930000     -5.6811475E-25
  0.2940000     -1.3172668E-24
  0.2950000     -2.1358551E-24
  0.2960000     -3.0031980E-24
  0.2970000     -3.8935930E-24
  0.2980000     -4.7765626E-24
  0.2990000     -5.6173105E-24
  0.3000000     -6.3774111E-24
  0.3010000     -7.0157384E-24
  0.3020000     -7.4896174E-24
  0.3030000     -7.7562129E-24
  0.3040000     -7.7741004E-24
  0.3050000     -7.5050317E-24
  0.3060000     -6.9158071E-24
  0.3070000     -5.9802338E-24
  0.3080000     -4.6811006E-24
  0.3090000     -3.0121007E-24
  0.3100000     -9.7961082E-25
  0.3110000      1.3957342E-24
  0.3120000      4.0777782E-24
  0.3130000      7.0139540E-24
  0.3140000      1.0134886E-23
  0.3150000      1.3354528E-23
  0.3160000      1.6570935E-23
  0.3170000      1.9667695E-23
  0.3180000      2.2516103E-23
  0.3190000      2.4978037E-23
  0.3200000      2.6909595E-23
  0.3210000      2.8165439E-23
  0.3220000      2.8603727E-23
  0.3230000      2.8091684E-23
  0.3240000      2.6511529E-23
  0.3250000      2.3766722E-23
  0.3260000      1.9788322E-23
  0.3270000      1.4541190E-23
  0.3280000      8.0299082E-24
  0.3290000      3.0406155E-25
  0.3300000     -8.5373130E-24
  0.3310000     -1.8342423E-23
  0.3320000     -2.8904785E-23
  0.3330000     -3.9962958E-23
  0.3340000     -5.1202153E-23
  0.3350000     -6.2257862E-23
  0.3360000     -7.2721786E-23
  0.3370000     -8.2150062E-23
  0.3380000     -9.0073703E-23
  0.3390000     -9.6011529E-23
  0.3400000     -9.9485079E-23
  0.3410000     -1.0003545E-22
  0.3420000     -9.7241849E-23
  0.3430000     -9.0741143E-23
  0.3440000     -8.0248131E-23
  0.3450000     -6.5575792E-23
  0.3460000     -4.6654919E-23
  0.3470000     -2.3552228E-23
  0.3480000      3.5137588E-24
  0.3490000      3.4159921E-23
  0.3500000      6.7829732E-23
  0.3510000      1.0378920E-22
  0.3520000      1.4112844E-22
  0.3530000      1.7876934E-22
  0.3540000      2.1548015E-22
  0.3550000      2.4989723E-22
  0.3560000      2.8055403E-22
  0.3570000      3.0591736E-22
  0.3580000      3.2443110E-22
  0.3590000      3.3456575E-22
  0.3600000      3.3487416E-22
  0.3610000      3.2405081E-22
  0.3620000      3.0099512E-22
  0.3630000      2.6487493E-22
  0.3640000      2.1518926E-22
  0.3650000      1.5182846E-22
  0.3660000      7.5127736E-23
  0.3670000     -1.4086757E-23
  0.3680000     -1.1446301E-22
  0.3690000     -2.2410163E-22
  0.3700000     -3.4055009E-22
  0.3710000     -4.6081513E-22
  0.3720000     -5.8139478E-22
  0.3730000     -6.9833219E-22
  0.3740000     -8.0729051E-22
  0.3750000     -9.0365150E-22
  0.3760000     -9.8263382E-22
  0.3770000     -1.0394350E-21
  0.3780000     -1.0693867E-21
  0.3790000     -1.0681292E-21
  0.3800000     -1.0317950E-21
  0.3810000     -9.5719701E-22
  0.3820000     -8.4202074E-22
  0.3830000     -6.8500662E-22
  0.3840000     -4.8612138E-22
  0.3850000     -2.4670801E-22
  0.3860000      3.0390750E-23
  0.3870000      3.4074591E-22
  0.3880000      6.7829699E-22
  0.3890000      1.0353563E-21
  0.3900000      1.4026677E-21
  0.3910000      1.7695245E-21
  0.3920000      2.1239502E-21
  0.3930000      2.4529403E-21
  0.3940000      2.7427704E-21
  0.3950000      2.9793590E-21
  0.3960000      3.1486901E-21
  0.3970000      3.2372790E-21
  0.3980000      3.2326764E-21
  0.3990000      3.1239938E-21
  0.4000000      2.9024431E-21
  0.4010000      2.5618656E-21
  0.4020000      2.0992333E-21
  0.4030000      1.5151130E-21
  0.4040000      8.1405684E-22
  0.4050000      4.9102694E-24
  0.4060000     -8.9898074E-22
  0.4070000     -1.8796946E-21
  0.4080000     -2.9147912E-21
  0.4090000     -3.9775258E-21
  0.4100000     -5.0372258E-21
  0.4110000     -6.0598387E-21
  0.4120000     -7.0086456E-21
  0.4130000     -7.8451433E-21
  0.4140000     -8.5300803E-21
  0.4150000     -9.0246293E-21
  0.4160000     -9.2916835E-21
  0.4170000     -9.2972233E-21
  0.4180000     -9.0117466E-21
  0.4190000     -8.4117071E-21
  0.4200000     -7.4809124E-21
  0.4210000     -6.2118542E-21
  0.4220000     -4.6068730E-21
  0.4230000     -2.6791817E-21
  0.4240000     -4.5360416E-22
  0.4250000      2.0329410E-21
  0.4260000      4.7313083E-21
  0.4270000      7.5803566E-21
  0.4280000      1.0507586E-20
  0.4290000      1.3430220E-20
  0.4300000      1.6256689E-20
  0.4310000      1.8888593E-20
  0.4320000      2.1223051E-20
  0.4330000      2.3155454E-20
  0.4340000      2.4582578E-20
  0.4350000      2.5405933E-20
  0.4360000      2.5535364E-20
  0.4370000      2.4892748E-20
  0.4380000      2.3415679E-20
  0.4390000      2.1061067E-20
  0.4400000      1.7808501E-20
  0.4410000      1.3663268E-20
  0.4420000      8.6588354E-21
  0.4430000      2.8587410E-21
  0.4440000     -3.6422422E-21
  0.4450000     -1.0717834E-20
  0.4460000     -1.8210906E-20
  0.4470000     -2.5935167E-20
  0.4480000     -3.3677935E-20
  0.4490000     -4.1204002E-20
  0.4500000     -4.8260602E-20
  0.4510000     -5.4583426E-20
  0.4520000     -5.9903586E-20
  0.4530000     -6.3955459E-20
  0.4540000     -6.6485191E-20
  0.4550000     -6.7259691E-20
  0.4560000     -6.6075956E-20
  0.4570000     -6.2770278E-20
  0.4580000     -5.7227276E-20
  0.4590000     -4.9388315E-20
  0.4600000     -3.9258916E-20
  0.4610000     -2.6915111E-20
  0.4620000     -1.2508030E-20
  0.4630000      3.7331227E-21
  0.4640000      2.1500421E-20
  0.4650000      4.0408778E-20
  0.4660000      6.0000114E-20
  0.4670000      7.9750157E-20
  0.4680000      9.9077936E-20
  0.4690000      1.1735789E-19
  0.4700000      1.3393469E-19
  0.4710000      1.4814025E-19
  0.4720000      1.5931293E-19
  0.4730000      1.6681821E-19
  0.4740000      1.7007067E-19
  0.4750000      1.6855678E-19
  0.4760000      1.6185714E-19
  0.4770000      1.4966874E-19
  0.4780000      1.3182490E-19
  0.4790000      1.0831380E-19
  0.4800000      7.9293527E-20
  0.4810000      4.5103467E-20
  0.4820000      6.2713918E-21
  0.4830000     -3.6484772E-20
  0.4840000     -8.2260585E-20
  0.4850000     -1.2997494E-19
  0.4860000     -1.7838607E-19
  0.4870000     -2.2611414E-19
  0.4880000     -2.7166987E-19
  0.4890000     -3.1348969E-19
  0.4900000     -3.4997565E-19
  0.4910000     -3.7954063E-19
  0.4920000     -4.0065749E-19
  0.4930000     -4.1191061E-19
  0.4940000     -4.1204839E-19
  0.4950000     -4.0003680E-19
  0.4960000     -3.7510994E-19
  0.4970000     -3.3681779E-19
  0.4980000     -2.8506854E-19
  0.4990000     -2.2016361E-19
  0.5000000     -1.4282440E-19
  0.5010000     -5.4208590E-20
  0.5020000      4.4085618E-20
  0.5030000      1.5002796E-19
  0.5040000      2.6117822E-19
  0.5050000      3.7472298E-19
  0.5060000      4.8752681E-19
  0.5070000      5.9619761E-19
  0.5080000      6.9716519E-19
  0.5090000      7.8677274E-19
  0.5100000      8.6137838E-19
  0.5110000      9.1746469E-19
  0.5120000      9.5175546E-19
  0.5130000      9.6133307E-19
  0.5140000      9.4375797E-19
  0.5150000      8.9718046E-19
  0.5160000      8.2044845E-19
  0.5170000      7.1319952E-19
  0.5180000      5.7594022E-19
  0.5190000      4.1010444E-19
  0.5200000      2.1808935E-19
  0.5210000      3.2650184E-21
  0.5220000     -2.3004234E-19
  0.5230000     -4.7659981E-19
  0.5240000     -7.3034584E-19
  0.5250000     -9.8450137E-19
  0.5260000     -1.2317094E-18
  0.5270000     -1.4642062E-18
  0.5280000     -1.6740148E-18
  0.5290000     -1.8531644E-18
  0.5300000     -1.9939240E-18
  0.5310000     -2.0890504E-18
  0.5320000     -2.1320409E-18
  0.5330000     -2.1173830E-18
  0.5340000     -2.0407977E-18
  0.5350000     -1.8994619E-18
  0.5360000     -1.6922088E-18
  0.5370000     -1.4196953E-18
  0.5380000     -1.0845253E-18
  0.5390000     -6.9132969E-19
  0.5400000     -2.4678841E-19
  0.5410000      2.4040136E-19
  0.5420000      7.5962157E-19
  0.5430000      1.2984928E-18
  0.5440000      1.8430992E-18
  0.5450000      2.3782731E-18
  0.5460000      2.8879396E-18
  0.5470000      3.3555163E-18
  0.5480000      3.7643517E-18
  0.5490000      4.0982093E-18
  0.5500000      4.3417656E-18
  0.5510000      4.4811248E-18
  0.5520000      4.5043314E-18
  0.5530000      4.4018602E-18
  0.5540000      4.1670778E-18
  0.5550000      3.7966486E-18
  0.5560000      3.2908793E-18
  0.5570000      2.6539807E-18
  0.5580000      1.8942372E-18
  0.5590000      1.0240672E-18
  0.5600000      5.9973981E-20
  0.5610000     -9.7763215E-19
  0.5620000     -2.0647346E-18
  0.5630000     -3.1741375E-18
  0.5640000     -4.2760163E-18
  0.5650000     -5.3385848E-18
  0.5660000     -6.3288668E-18
  0.5670000     -7.2135543E-18
  0.5680000     -7.9599458E-18
  0.5690000     -8.5369241E-18
  0.5700000     -8.9159648E-18
  0.5710000     -9.0721389E-18
  0.5720000     -8.9850864E-18
  0.5730000     -8.6399189E-18
  0.5740000     -8.0280418E-18
  0.5750000     -7.1478397E-18
  0.5760000     -6.0052167E-18
  0.5770000     -4.6139572E-18
  0.5780000     -2.9958829E-18
  0.5790000     -1.1807941E-18
  0.5800000      7.9383050E-19
  0.5810000      2.8833663E-18
  0.5820000      5.0368252E-18
  0.5830000      7.1978684E-18
  0.5840000      9.3060516E-18
  0.5850000      1.1298265E-17
  0.5860000      1.3110354E-17
  0.5870000      1.4678886E-17
  0.5880000      1.5942993E-17
  0.5890000      1.6846314E-17
  0.5900000      1.7338884E-17
  0.5910000      1.7379015E-17
  0.5920000      1.6935046E-17
  0.5930000      1.5986921E-17
  0.5940000      1.4527535E-17
  0.5950000      1.2563850E-17
  0.5960000      1.0117601E-17
  0.5970000      7.2256931E-18
  0.5980000      3.9401632E-18
  0.5990000      3.2770407E-19
  0.6000000     -3.5312564E-18
  0.6010000     -7.5439376E-18
  0.6020000     -1.1607024E-17
  0.6030000     -1.5608925E-17
  0.6040000     -1.9432405E-17
  0.6050000     -2.2957549E-17
  0.6060000     -2.6065032E-17
  0.6070000     -2.8639537E-17
  0.6080000     -3.0573340E-17
  0.6090000     -3.1769870E-17
  0.6100000     -3.2147200E-17
  0.6110000     -3.1641359E-17
  0.6120000     -3.0209337E-17
  0.6130000     -2.7831686E-17
  0.6140000     -2.4514614E-17
  0.6150000     -2.0291500E-17
  0.6160000     -1.5223707E-17
  0.6170000     -9.4006479E-18
  0.6180000     -2.9390796E-18
  0.6190000      4.0184604E-18
  0.6200000      1.1306043E-17
  0.6210000      1.8737580E-17
  0.6220000      2.6110801E-17
  0.6230000      3.3212000E-17
  0.6240000      3.9821375E-17
  0.6250000      4.5718921E-17
  0.6260000      5.0690710E-17
  0.6270000      5.4535333E-17
  0.6280000      5.7070512E-17
  0.6290000      5.8139514E-17
  0.6300000      5.7617246E-17
  0.6310000      5.5415870E-17
  0.6320000      5.1489780E-17
  0.6330000      4.5839484E-17
  0.6340000      3.8514677E-17
  0.6350000      2.9615954E-17
  0.6360000      1.9295199E-17
  0.6370000      7.7546247E-18
  0.6380000     -4.7557968E-18
  0.6390000     -1.7942315E-17
  0.6400000     -3.1472962E-17
  0.6410000     -4.4984494E-17
  0.6420000     -5.8090644E-17
  0.6430000     -7.0391667E-17
  0.6440000     -8.1484669E-17
  0.6450000     -9.0974932E-17
  0.6460000     -9.8487452E-17
  0.6470000     -1.0367888E-16
  0.6480000     -1.0624921E-16
  0.6490000     -1.0595297E-16
  0.6500000     -1.0260963E-16
  0.6510000     -9.6112895E-17
  0.6520000     -8.6438342E-17
  0.6530000     -7.3649435E-17
  0.6540000     -5.7901286E-17
  0.6550000     -3.9442215E-17
  0.6560000     -1.8612758E-17
  0.6570000      4.1579052E-18
  0.6580000      2.8358332E-17
  0.6590000      5.3403727E-17
  0.6600000      7.8647532E-17
  0.6610000      1.0339543E-16
  0.6620000      1.2692149E-16
  0.6630000      1.4848638E-16
  0.6640000      1.6735664E-16
  0.6650000      1.8282558E-16
  0.6660000      1.9423424E-16
  0.6670000      2.0099254E-16
  0.6680000      2.0260000E-16
  0.6690000      1.9866479E-16
  0.6700000      1.8892178E-16
  0.6710000      1.7324738E-16
  0.6720000      1.5167213E-16
  0.6730000      1.2438950E-16
  0.6740000      9.1761091E-17
  0.6750000      5.4317275E-17
  0.6760000      1.2753701E-17
  0.6770000     -3.2077121E-17
  0.6780000     -7.9178807E-17
  0.6790000     -1.2742881E-16
  0.6800000     -1.7560060E-16
  0.6810000     -2.2238977E-16
  0.6820000     -2.6644409E-16
  0.6830000     -3.0639638E-16
  0.6840000     -3.4089998E-16
  0.6850000     -3.6866558E-16
  0.6860000     -3.8849902E-16
  0.6870000     -3.9933866E-16
  0.6880000     -4.0029154E-16
  0.6890000     -3.9066745E-16
  0.6900000     -3.7000930E-16
  0.6910000     -3.3811988E-16
  0.6920000     -2.9508293E-16
  0.6930000     -2.4127818E-16
  0.6940000     -1.7739007E-16
  0.6950000     -1.0440834E-16
  0.6960000     -2.3621565E-17
  0.6970000      6.3397882E-17
  0.6980000      1.5481692E-16
  0.6990000      2.4857291E-16
  0.7000000      3.4241254E-16
  0.7010000      4.3393749E-16
  0.7020000      5.2065744E-16
  0.7030000      6.0004687E-16
  0.7040000      6.6960819E-16
  0.7050000      7.2693559E-16
  0.7060000      7.6978190E-16
  0.7070000      7.9612452E-16
  0.7080000      8.0422978E-16
  0.7090000      7.9271362E-16
  0.7100000      7.6059678E-16
  0.7110000      7.0735367E-16
  0.7120000      6.3295125E-16
  0.7130000      5.3788022E-16
  0.7140000      4.2317242E-16
  0.7150000      2.9040694E-16
  0.7160000      1.4170382E-16
  0.7170000     -2.0297586E-17
  0.7180000     -1.9247328E-16
  0.7190000     -3.7126306E-16
  0.7200000     -5.5273294E-16
  0.7210000     -7.3264935E-16
  0.7220000     -9.0656560E-16
  0.7230000     -1.0699174E-15
  0.7240000     -1.2181269E-15
  0.7250000     -1.3467127E-15
  0.7260000     -1.4514025E-15
  0.7270000     -1.5282488E-15
  0.7280000     -1.5737398E-15
  0.7290000     -1.5849089E-15
  0.7300000     -1.5594333E-15
  0.7310000     -1.4957268E-15
  0.7320000     -1.3930148E-15
  0.7330000     -1.2513987E-15
  0.7340000     -1.0718981E-15
  0.7350000     -8.5647699E-16
  0.7360000     -6.0804615E-16
  0.7370000     -3.3044685E-16
  0.7380000     -2.8407827E-17
  0.7390000      2.9251841E-16
  0.7400000      6.2604173E-16
  0.7410000      9.6524254E-16
  0.7420000      1.3026990E-15
  0.7430000      1.6306335E-15
  0.7440000      1.9410728E-15
  0.7450000      2.2260202E-15
  0.7460000      2.4776379E-15
  0.7470000      2.6884324E-15
  0.7480000      2.8514401E-15
  0.7490000      2.9604130E-15
  0.7500000      3.0099902E-15
  0.7510000      2.9958638E-15
  0.7520000      2.9149241E-15
  0.7530000      2.7653832E-15
  0.7540000      2.5468794E-15
  0.7550000      2.2605501E-15
  0.7560000      1.9090761E-15
  0.7570000      1.4966913E-15
  0.7580000      1.0291642E-15
  0.7590000      5.1373718E-16
  0.7600000     -4.0960624E-17
  0.7610000     -6.2504213E-16