  -7.50215960       0.00000000    
  -7.47815990       0.00000000    
  -7.45415974       0.00000000    
  -7.43015957       0.00000000    
  -7.40615988       0.00000000    
  -7.38215971       0.00000000    
  -7.35815954       0.00000000    
  -7.33415985       0.00000000    
  -7.31015968       0.00000000    
  -7.28615952       0.00000000    
  -7.26215982       0.00000000    
  -7.23815966       0.00000000    
  -7.21415949       0.00000000    
  -7.19015980       0.00000000    
  -7.16615963       0.00000000    
  -7.14215946       0.00000000    
  -7.11815977       0.00000000    
  -7.09415960       0.00000000    
  -7.07015991       0.00000000    
  -7.04615974       0.00000000    
  -7.02215958       0.00000000    
  -6.99815989       0.00000000    
  -6.97415972       0.00000000    
  -6.95015955       0.00000000    
  -6.92615986       0.00000000    
  -6.90215969       0.00000000    
  -6.87815952       0.00000000    
  -6.85415983       0.00000000    
  -6.83015966       0.00000000    
  -6.80615950       0.00000000    
  -6.78215981       0.00000000    
  -6.75815964       0.00000000    
  -6.73415947       0.00000000    
  -6.71015978       0.00000000    
  -6.68615961       0.00000000    
  -6.66215992       0.00000000    
  -6.63815975       0.00000000    
  -6.61415958       0.00000000    
  -6.59015989       0.00000000    
  -6.56615973       0.00000000    
  -6.54215956       0.00000000    
  -6.51815987       0.00000000    
  -6.49415970       0.00000000    
  -6.47015953       0.00000000    
  -6.44615984       0.00000000    
  -6.42215967       0.00000000    
  -6.39815950       0.00000000    
  -6.37415981       0.00000000    
  -6.35015965       0.00000000    
  -6.32615948       0.00000000    
  -6.30215979       0.00000000    
  -6.27815962       0.00000000    
  -6.25415993       0.00000000    
  -6.23015976       0.00000000    
  -6.20615959       0.00000000    
  -6.18215990       0.00000000    
  -6.15815973       0.00000000    
  -6.13415956       0.00000000    
  -6.11015987       0.00000000    
  -6.08615971       0.00000000    
  -6.06215954       0.00000000    
  -6.03815985       0.00000000    
  -6.01415968       0.00000000    
  -5.99015951       0.00000000    
  -5.96615982       0.00000000    
  -5.94215965       0.00000000    
  -5.91815948       0.00000000    
  -5.89415979       0.00000000    
  -5.87015963       0.00000000    
  -5.84615946       0.00000000    
  -5.82215977       0.00000000    
  -5.79815960       0.00000000    
  -5.77415991       0.00000000    
  -5.75015974       0.00000000    
  -5.72615957       0.00000000    
  -5.70215988       0.00000000    
  -5.67815971       0.00000000    
  -5.65415955       0.00000000    
  -5.63015985       0.00000000    
  -5.60615969       0.00000000    
  -5.58215952       0.00000000    
  -5.55815983       0.00000000    
  -5.53415966       0.00000000    
  -5.51015949       0.00000000    
  -5.48615980       0.00000000    
  -5.46215963       0.00000000    
  -5.43815947       0.00000000    
  -5.41415977       0.00000000    
  -5.39015961       0.00000000    
  -5.36615992       0.00000000    
  -5.34215975       0.00000000    
  -5.31815958       0.00000000    
  -5.29415989       0.00000000    
  -5.27015972       0.00000000    
  -5.24615955       0.00000000    
  -5.22215986       0.00000000    
  -5.19815969       0.00000000    
  -5.17415953       0.00000000    
  -5.15015984       0.00000000    
  -5.12615967       0.00000000    
  -5.10215950       0.00000000    
  -5.07815981       0.00000000    
  -5.05415964       0.00000000    
  -5.03015947       0.00000000    
  -5.00615978       0.00000000    
  -4.98215961       0.00000000    
  -4.95815992       0.00000000    
  -4.93415976       0.00000000    
  -4.91015959       0.00000000    
  -4.88615990       0.00000000    
  -4.86215973       0.00000000    
  -4.83815956       0.00000000    
  -4.81415987       0.00000000    
  -4.79015970       0.00000000    
  -4.76615953       0.00000000    
  -4.74215984       0.00000000    
  -4.71815968       0.00000000    
  -4.69415951       0.00000000    
  -4.67015982       0.00000000    
  -4.64615965       0.00000000    
  -4.62215948       0.00000000    
  -4.59815979       0.00000000    
  -4.57415962       0.00000000    
  -4.55015945       0.00000000    
  -4.52615976       0.00000000    
  -4.50215960       0.00000000    
  -4.47815990       0.00000000    
  -4.45415974       0.00000000    
  -4.43015957       0.00000000    
  -4.40615988       0.00000000    
  -4.38215971       0.00000000    
  -4.35815954       0.00000000    
  -4.33415985       0.00000000    
  -4.31015968       0.00000000    
  -4.28615952       0.00000000    
  -4.26215982       0.00000000    
  -4.23815966       0.00000000    
  -4.21415949       0.00000000    
  -4.19015980       0.00000000    
  -4.16615963       0.00000000    
  -4.14215946       0.00000000    
  -4.11815977       0.00000000    
  -4.09415960       0.00000000    
  -4.07015991       0.00000000    
  -4.04615974       0.00000000    
  -4.02215958       0.00000000    
  -3.99815965       0.00000000    
  -3.97415972       0.00000000    
  -3.95015979       0.00000000    
  -3.92615962       0.00000000    
  -3.90215969       0.00000000    
  -3.87815976       0.00000000    
  -3.85415959       0.00000000    
  -3.83015966       0.00000000    
  -3.80615973       0.00000000    
  -3.78215981       0.00000000    
  -3.75815964       0.00000000    
  -3.73415971       0.00000000    
  -3.71015978       0.00000000    
  -3.68615961       0.00000000    
  -3.66215968       0.00000000    
  -3.63815975       0.00000000    
  -3.61415958       0.00000000    
  -3.59015965       0.00000000    
  -3.56615973       0.00000000    
  -3.54215980       0.00000000    
  -3.51815963       0.00000000    
  -3.49415970       0.00000000    
  -3.47015977       0.00000000    
  -3.44615960       0.00000000    
  -3.42215967       0.00000000    
  -3.39815974       0.00000000    
  -3.37415957       0.00000000    
  -3.35015965       0.00000000    
  -3.32615972       0.00000000    
  -3.30215979       0.00000000    
  -3.27815962       0.00000000    
  -3.25415969       0.00000000    
  -3.23015976       0.00000000    
  -3.20615959       0.00000000    
  -3.18215966       0.00000000    
  -3.15815973       0.00000000    
  -3.13415980       0.00000000    
  -3.11015964       0.00000000    
  -3.08615971       0.00000000    
  -3.06215978       0.00000000    
  -3.03815961       0.00000000    
  -3.01415968       0.00000000    
  -2.99015975       0.00000000    
  -2.96615958       0.00000000    
  -2.94215965       0.00000000    
  -2.91815972       0.00000000    
  -2.89415979       0.00000000    
  -2.87015963       0.00000000    
  -2.84615970       0.00000000    
  -2.82215977       0.00000000    
  -2.79815960      -0.00000000    
  -2.77415967      -0.00000000    
  -2.75015974      -0.00000000    
  -2.72615957      -0.00000000    
  -2.70215964      -0.00000000    
  -2.67815971      -0.00000000    
  -2.65415978      -0.00000000    
  -2.63015962       0.00000000    
  -2.60615969       0.00000000    
  -2.58215976       0.00000000    
  -2.55815959      -0.00000000    
  -2.53415966      -0.00000000    
  -2.51015973      -0.00000000    
  -2.48615980      -0.00000000    
  -2.46215963      -0.00000000    
  -2.43815970      -0.00000000    
  -2.41415977      -0.00000000    
  -2.39015961      -0.00000000    
  -2.36615968      -0.00000000    
  -2.34215975      -0.00000000    
  -2.31815958      -0.00000000    
  -2.29415965      -0.00000000    
  -2.27015972      -0.00000000    
  -2.24615979       0.00000000    
  -2.22215962      -0.00000000    
  -2.19815969      -0.00000000    
  -2.17415977       0.00000000    
  -2.15015960       1.40129846E-45
  -2.12615967       2.80259693E-45
  -2.10215974       4.20389539E-45
  -2.07815957       8.40779079E-45
  -2.05415964       1.26116862E-44
  -2.03015971       1.68155816E-44
  -2.00615978       1.96181785E-44
  -1.98215973       1.54142831E-44
  -1.95815969       5.60519386E-45
  -1.93415964      -9.80908925E-45
  -1.91015971      -2.94272678E-44
  -1.88615966      -4.76441478E-44
  -1.86215973      -5.74532370E-44
  -1.83815968      -5.74532370E-44
  -1.81415963      -4.90454463E-44
  -1.79015970      -3.92363570E-44
  -1.76615965      -2.66246708E-44
  -1.74215972      -5.60519386E-45
  -1.71815968       1.54142831E-44
  -1.69415975       3.78350585E-44
  -1.67015970       5.88545355E-44
  -1.64615965       6.30584309E-44
  -1.62215972       4.62428493E-44
  -1.59815967       5.60519386E-45
  -1.57415974      -6.02558340E-44
  -1.55015969      -8.40779079E-44
  -1.52615964      -4.34402524E-44
  -1.50215971       3.22298647E-44
  -1.47815967       1.03696086E-43
  -1.45415974       1.77964905E-43
  -1.43015969       2.50832425E-43
  -1.40615964       3.25101244E-43
  -1.38215971       4.30198629E-43
  -1.35815966       5.28289521E-43
  -1.33415973       5.46506401E-43
  -1.31015968       4.25994733E-43
  -1.28615963       1.84971397E-43
  -1.26215971      -1.40129846E-43
  -1.23815966      -4.66632389E-43
  -1.21415973      -7.17464814E-43
  -1.19015968      -8.43581676E-43
  -1.16615963      -7.97338826E-43
  -1.14215970      -5.43703804E-43
  -1.11815965      -4.34402524E-44
  -1.09415972       6.03959638E-43
  -1.07015967       1.24715563E-42
  -1.04615974       1.73200490E-42
  -1.02215970       1.89735812E-42
 -0.998159707       1.63391401E-42
 -0.974159718       8.73008943E-43
 -0.950159669      -2.98476573E-43
 -0.926159680      -1.70257763E-42
 -0.902159691      -3.10107350E-42
 -0.878159702      -4.13663307E-42
 -0.854159713      -4.41829406E-42
 -0.830159664      -3.77229547E-42
 -0.806159675      -2.12156587E-42
 -0.782159686       4.17586942E-43
 -0.758159697       3.44579292E-42
 -0.734159708       6.36469762E-42
 -0.710159659       8.39377780E-42
 -0.686159670       8.80435825E-42
 -0.662159681       7.17184554E-42
 -0.638159692       3.44158903E-42
 -0.614159703      -2.03748797E-42
 -0.590159714      -8.29428561E-42
 -0.566159666      -1.38938743E-41
 -0.542159677      -1.74279490E-41
 -0.518159688      -1.75933022E-41
 -0.494159698      -1.34300445E-41
 -0.470159680      -4.92416280E-42
 -0.446159691       6.94623649E-42
 -0.422159702       2.01871057E-41
 -0.398159683       3.19804336E-41
 -0.374159694       3.91985219E-41
 -0.350159675       3.89154597E-41
 -0.326159686       2.94370768E-41
 -0.302159697       1.09063059E-41
 -0.278159678      -1.45510833E-41
 -0.254159689      -4.27914512E-41
 -0.230159685      -6.81787755E-41
 -0.206159696      -8.44660675E-41
 -0.182159692      -8.60018907E-41
 -0.158159688      -6.91736974E-41
 -0.134159684      -3.37825034E-41
 -0.110159688       1.63517518E-41
  -8.61596912E-02   7.36046031E-41
  -6.21596873E-02   1.27233697E-40
  -3.81596908E-02   1.65183662E-40
  -1.41596887E-02   1.76608448E-40
   9.84031055E-03   1.54177864E-40
   3.38403098E-02   9.65382538E-41
   5.78403100E-02   9.55265163E-42
   8.18403140E-02  -9.39360426E-41
  0.105840310      -1.95280750E-40
  0.129840314      -2.73265812E-40
  0.153840318      -3.08679427E-40
  0.177840307      -2.88158812E-40
  0.201840311      -2.08090019E-40
  0.225840315      -7.73376622E-41
  0.249840304       8.32413327E-41
  0.273840308       2.43582107E-40
  0.297840297       3.69477563E-40
  0.321840316       4.29608682E-40
  0.345840305       4.03212423E-40
  0.369840324       2.86070878E-40
  0.393840313       9.42036906E-41
  0.417840302      -1.36482267E-40
  0.441840321      -3.55390310E-40
  0.465840310      -5.06328372E-40
  0.489840299      -5.39714307E-40
  0.513840318      -4.25214210E-40
  0.537840307      -1.62389473E-40
  0.561840296       2.13217370E-40
  0.585840285       6.31168650E-40
  0.609840333       9.94972356E-40
  0.633840322       1.19832879E-39
  0.657840312       1.14659425E-39
  0.681840301       7.80206551E-40
  0.705840290       9.49015372E-41
  0.729840338      -8.45798530E-40
  0.753840327      -1.90882074E-39
  0.777840316      -2.90339793E-39
  0.801840305      -3.60676148E-39
  0.825840294      -3.80090017E-39
  0.849840283      -3.31466922E-39
  0.873840332      -2.06468157E-39
  0.897840321      -8.79188670E-41
  0.921840310       2.44105071E-39
  0.945840299       5.21449643E-39
  0.969840288       7.81909970E-39
  0.993840337       9.78477112E-39
   1.01784027       1.06512864E-38
   1.04184031       1.00440674E-38
   1.06584036       7.74778341E-39
   1.08984029       3.76736290E-39
   1.11384034      -1.63515276E-39
   1.13784027      -7.93638557E-39
   1.16184032      -1.43851583E-38
   1.18584037      -2.00751629E-38
   1.20984030      -2.40513684E-38
   1.23384035      -2.54408399E-38
   1.25784028      -2.35934296E-38
   1.28184032      -1.82133488E-38
   1.30584025      -9.46069983E-39
   1.32984030       1.99655744E-39
   1.35384035       1.49983749E-38
   1.37784028       2.79861640E-38
   1.40184033       3.91748428E-38
   1.42584026       4.67913203E-38
   1.44984031       4.93520896E-38
   1.47384036       4.59416458E-38
   1.49784029       3.64419661E-38
   1.52184033       2.16612562E-38
   1.54584026       3.31732328E-39
   1.56984031      -1.61518131E-38
   1.59384036      -3.39476436E-38
   1.61784029      -4.74044865E-38
   1.64184034      -5.45420227E-38
   1.66584027      -5.45696731E-38
   1.68984032      -4.82205075E-38
   1.71384037      -3.77991685E-38
   1.73784029      -2.68627206E-38
   1.76184034      -1.95174854E-38
   1.78584027      -1.94000944E-38
   1.80984032      -2.85034786E-38
   1.83384037      -4.60922742E-38
   1.85784030      -6.79990001E-38
   1.88184035      -8.65860191E-38
   1.90584028      -9.15850113E-38
   1.92984033      -7.18803670E-38
   1.95384026      -1.81000005E-38
   1.97784030       7.43484236E-38
   2.00184035       2.02368394E-37
   2.02584028       3.53101900E-37
   2.04984021       5.03417527E-37
   2.07384038       6.21542459E-37
   2.09784031       6.71107843E-37
   2.12184024       6.17425063E-37
   2.14584041       4.35272226E-37
   2.16984034       1.16950655E-37
   2.19384027      -3.21014542E-37
   2.21784019      -8.34294990E-37
   2.24184036      -1.35185805E-36
   2.26584029      -1.78272034E-36
   2.28984022      -2.02839464E-36
   2.31384039      -1.99990842E-36
   2.33784032      -1.63706009E-36
   2.36184025      -9.26587691E-37
   2.38584042       8.46299522E-38
   2.40984035       1.28507715E-36
   2.43384027       2.50562371E-36
   2.45784020       3.53916927E-36
   2.48184037       4.17171602E-36
   2.50584030       4.22113320E-36
   2.52984023       3.57755722E-36
   2.55384040       2.23781275E-36
   2.57784033       3.25890612E-37
   2.60184026      -1.90727600E-36
   2.62584043      -4.10869786E-36
   2.64984035      -5.87267407E-36
   2.67384028      -6.80947433E-36
   2.69784021      -6.62338190E-36
   2.72184038      -5.18636803E-36
   2.74584031      -2.59194173E-36
   2.76984024       8.25174667E-37
   2.79384041       4.51373795E-36
   2.81784034       7.77820680E-36
   2.84184027       9.89270045E-36
   2.86584020       1.02414443E-35
   2.88984036       8.46232816E-36
   2.91384029       4.56529067E-36
   2.93784022      -1.00287806E-36
   2.96184039      -7.37014223E-36
   2.98584032      -1.33388934E-35
   3.00984025      -1.75697662E-35
   3.03384042      -1.88280847E-35
   3.05784035      -1.62549460E-35
   3.08184028      -9.61304988E-36
   3.10584021       5.46604470E-37
   3.12984037       1.28451456E-35
   3.15384030       2.51946867E-35
   3.17784023       3.50811968E-35
   3.20184040       3.99854046E-35
   3.22584033       3.78838009E-35
   3.24984026       2.77454807E-35
   3.27384043       9.92631870E-36
   3.29784036      -1.36357072E-35
   3.32184029      -3.94983952E-35
   3.34584022      -6.31008237E-35
   3.36984038      -7.94371933E-35
   3.39384031      -8.39404158E-35
   3.41784024      -7.34425854E-35
   3.44184041      -4.70413898E-35
   3.46584034      -6.68981698E-36
   3.48984027       4.26521151E-35
   3.51384020       9.34092925E-35
   3.53784037       1.36347438E-34
   3.56184030       1.62010213E-34
   3.58584023       1.62449898E-34
   3.60984039       1.32977259E-34
   3.63384032       7.36069824E-35
   3.65784025      -1.01217281E-35
   3.68184042      -1.07206095E-34
   3.70584035      -2.02257647E-34
   3.72984028      -2.77566336E-34
   3.75384021      -3.15933668E-34
   3.77784038      -3.03882210E-34
   3.80184031      -2.34717753E-34
   3.82584023      -1.10865407E-34
   3.84984040       5.50574405E-35
   3.87384033       2.40822403E-34
   3.89784026       4.16978703E-34
   3.92184043       5.50900570E-34
   3.94584036       6.12026873E-34
   3.96984029       5.77543747E-34
   3.99384022       4.37574374E-34
   4.01784039       1.98890177E-34
   4.04184008      -1.13721915E-34
   4.06584024      -4.59012406E-34
   4.08984041      -7.83888969E-34
   4.11384010      -1.03073406E-33
   4.13784027      -1.14653338E-33
   4.16184044      -1.09249380E-33
   4.18584013      -8.52569706E-34
   4.20984030      -4.39296198E-34
   4.23384047       1.04418761E-34
   4.25784016       7.08372640E-34
   4.28184032       1.28312087E-33
   4.30584049       1.73227588E-33
   4.32984018       1.96751306E-33
   4.35384035       1.92410334E-33
   4.37784052       1.57443289E-33
   4.40184021       9.37017312E-34
   4.42584038       7.89720408E-35
   4.44984055      -8.89238334E-34
   4.47384024      -1.82679059E-33
   4.49784040      -2.58197242E-33
   4.52184010      -3.01564204E-33
   4.54584026      -3.02525667E-33
   4.56984043      -2.56556656E-33
   4.59384012      -1.66220264E-33
   4.61784029      -4.15136437E-34
   4.64184046       1.00966002E-33
   4.66584015       2.40027700E-33
   4.68984032       3.52863494E-33
   4.71384048       4.18613265E-33
   4.73784018       4.21998394E-33
   4.76184034       3.56436593E-33
   4.78584051       2.26072157E-33
   4.80984020       4.62701806E-34
   4.83384037      -1.57676018E-33
   4.85784054      -3.53613974E-33
   4.88184023      -5.07078214E-33
   4.90584040      -5.86743340E-33
   4.92984009      -5.70003566E-33
   4.95384026      -4.47790247E-33
   4.97784042      -2.27758679E-33
   5.00184011       6.48639528E-34
   5.02584028       3.89187849E-33
   5.04984045       6.93357188E-33
   5.07384014       9.21626509E-33
   5.09784031       1.02298402E-32
   5.12184048       9.60143933E-33
   5.14584017       7.17526674E-33
   5.16984034       3.06832678E-33
   5.19384050      -2.30984879E-33
   5.21784019      -8.28132684E-33
   5.24184036      -1.39697659E-32
   5.26584053      -1.84114536E-32
   5.28984022      -2.06955170E-32
   5.31384039      -2.01153606E-32
   5.33784008      -1.63092759E-32
   5.36184025      -9.36680331E-33
   5.38584042       1.20374995E-34
   5.40984011       1.10786324E-32
   5.43384027       2.20503991E-32
   5.45784044       3.13656217E-32
   5.48184013       3.73703437E-32
   5.50584030       3.86849490E-32
   5.52984047       3.44561286E-32
   5.55384016       2.45625980E-32
   5.57784033       9.73605988E-33
   5.60184050      -8.43335867E-33
   5.62584019      -2.76243171E-32
   5.64984035      -4.50430275E-32
   5.67384052      -5.77918221E-32
   5.69784021      -6.33053843E-32
   5.72184038      -5.97960870E-32
   5.74584007      -4.66398366E-32
   5.76984024      -2.46337066E-32
   5.79384041       3.93328895E-33
   5.81784010       3.54336697E-32
   5.84184027       6.52866212E-32
   5.86584044       8.85468450E-32
   5.88984013       1.00632837E-31
   5.91384029       9.80995234E-32
   5.93784046       7.93396797E-32
   5.96184015       4.50935590E-32
   5.98584032      -1.34004005E-33
   6.00984049      -5.42660561E-32
   6.03384018      -1.06154640E-31
   6.05784035      -1.48568474E-31
   6.08184052      -1.73360132E-31
   6.10584021      -1.73988363E-31
   6.12984037      -1.46763303E-31
   6.15384054      -9.18160065E-32
   6.17784023      -1.36047470E-32
   6.20184040       7.91820812E-32
   6.22584009       1.74389818E-31
   6.24984026       2.57795762E-31
   6.27384043       3.15005943E-31
   6.29784012       3.33620484E-31
   6.32184029       3.05367125E-31
   6.34584045       2.27870426E-31
   6.36984015       1.05741806E-31
   6.39384031      -4.92575332E-32
   6.41784048      -2.19114427E-31
   6.44184017      -3.81506362E-31
   6.46584034      -5.12611551E-31
   6.48984051      -5.90453916E-31
   6.51384020      -5.98332878E-31
   6.53784037      -5.27824752E-31
   6.56184053      -3.80854692E-31
   6.58584023      -1.70427955E-31
   6.60984039       8.02273543E-32
   6.63384008       3.40133334E-31
   6.65784025       5.74433573E-31
   6.68184042       7.49206873E-31
   6.70584011       8.36577700E-31
   6.72984028       8.19368369E-31
   6.75384045       6.94536699E-31
   6.77784014       4.74757812E-31
   6.80184031       1.87737815E-31
   6.82584047      -1.26842329E-31
   6.84984016      -4.22491242E-31
   6.87384033      -6.52568354E-31
   6.89784050      -7.77538497E-31
   6.92184019      -7.71739971E-31
   6.94584036      -6.28563913E-31
   6.96984053      -3.63089822E-31
   6.99384022      -1.15359335E-32
   7.01784039       3.72675743E-31
   7.04184008       7.25921975E-31
   7.06584024       9.83618220E-31
   7.08984041       1.09043351E-30
   7.11384010       1.00994967E-30
   7.13784027       7.32178144E-31
   7.16184044       2.77546629E-31
   7.18584013      -3.03600098E-31
   7.20984030      -9.36311531E-31
   7.23384047      -1.53073834E-30
   7.25784016      -1.99507666E-30
   7.28184032      -2.24995656E-30
   7.30584049      -2.24208037E-30
   7.32984018      -1.95482943E-30
   7.35384035      -1.41382310E-30
   7.37784052      -6.86044505E-31
   7.40184021       1.27944214E-31
   7.42584038       9.08088758E-31
   7.44984055       1.53352924E-30
   7.47384024       1.90324723E-30
   7.49784040       1.95543071E-30
   7.52184010       1.68217398E-30
   7.54584026       1.13652173E-30
   7.56984043       4.29793884E-31
   7.59384012      -2.81511454E-31
   7.61784029      -8.18306663E-31
   7.64184046      -1.00839548E-30
   7.66584015      -7.18808777E-31
   7.68984032       1.14000582E-31
   7.71384048       1.46136856E-30
   7.73784018       3.19175605E-30
   7.76184034       5.07557283E-30
   7.78584051       6.80679916E-30
   7.80984020       8.04022187E-30
   7.83384037       8.44048127E-30
   7.85784054       7.73682621E-30
   7.88184023       5.77582365E-30
   7.90584040       2.56364033E-30
   7.92984009      -1.70988142E-30
   7.95384026      -6.67130622E-30
   7.97784042      -1.17908358E-29
   8.00184059      -1.64359373E-29
   8.02584076      -1.99466082E-29
   8.04983997      -2.17237871E-29
   8.07384014      -2.13195133E-29
   8.09784031      -1.85160635E-29
   8.12184048      -1.33814967E-29
   8.14584064      -6.29124877E-30
   8.16983986       2.09070529E-30
   8.19384003       1.08723658E-29
   8.21784019       1.90312979E-29
   8.24184036       2.55389355E-29
   8.26584053       2.94965048E-29
   8.28984070       3.02645236E-29
   8.31383991       2.75672045E-29
   8.33784008       2.15551780E-29
   8.36184025       1.28145390E-29
   8.38584042       2.31690106E-30
   8.40984058      -8.68685285E-30
   8.43384075      -1.88182434E-29
   8.45783997      -2.67501889E-29
   8.48184013      -3.13900521E-29
   8.50584030      -3.20412782E-29
   8.52984047      -2.85195077E-29
   8.55384064      -2.12039094E-29
   8.57783985      -1.10124486E-29
   8.60184002       7.00096929E-31
   8.62584019       1.23115801E-29
   8.64984035       2.21494071E-29
   8.67384052       2.87269062E-29
   8.69784069       3.09666785E-29
   8.72183990       2.83783159E-29
   8.74584007       2.11625185E-29
   8.76984024       1.02224585E-29
   8.79384041      -2.92458932E-30
   8.81784058      -1.63285005E-29
   8.84184074      -2.78599669E-29
   8.86583996      -3.55046148E-29
   8.88984013      -3.76581686E-29
   8.91384029      -3.33809551E-29
   8.93784046      -2.25737226E-29
   8.96184063      -6.04596730E-30
   8.98583984       1.45380989E-29
   9.00984001       3.68341956E-29
   9.03384018       5.80941782E-29
   9.05784035       7.55095622E-29
   9.08184052       8.65769968E-29
   9.10584068       8.94355283E-29
   9.12983990       8.31275480E-29
   9.15384007       6.77446279E-29
   9.17784023       4.44348721E-29
   9.20184040       1.52676441E-29
   9.22584057      -1.70276582E-29
   9.24984074      -4.94130128E-29
   9.27383995      -7.89331976E-29
   9.29784012      -1.03089842E-28
   9.32184029      -1.20141773E-28
   9.34584045      -1.29285005E-28
   9.36984062      -1.30683687E-28
   9.39383984      -1.25345696E-28
   9.41784000      -1.14861728E-28
   9.44184017      -1.01049813E-28
   9.46584034      -8.55648244E-29
   9.48984051      -6.95416891E-29
   9.51384068      -5.33394122E-29
   9.53783989      -3.64406770E-29
   9.56184006      -1.75393658E-29
   9.58584023       5.18107204E-30
   9.60984039       3.36074444E-29
   9.63384056       6.91540535E-29
   9.65784073       1.12200442E-28
   9.68183994       1.61604854E-28
   9.70584011       2.14387684E-28
   9.72984028       2.65663427E-28
   9.75384045       3.08870726E-28
   9.77784061       3.36311255E-28
   9.80184078       3.39964263E-28
   9.82584000       3.12500646E-28
   9.84984016       2.48384946E-28
   9.87384033       1.44931236E-28
   9.89784050       3.17189528E-30
   9.92184067      -1.71588851E-28
   9.94583988      -3.69635645E-28
   9.96984005      -5.77172075E-28
   9.99384022      -7.77122218E-28
   10.0178404      -9.50351094E-28
   10.0418406      -1.07720266E-27
   10.0658407      -1.13921308E-27
   10.0898399      -1.12083778E-27
   10.1138401      -1.01102357E-27
   10.1378403      -8.04477308E-28
   10.1618404      -5.02509789E-28
   10.1858406      -1.13379737E-28
   10.2098408       3.47887009E-28
   10.2338400       8.60181558E-28
   10.2578402       1.39743195E-27
   10.2818403       1.93006087E-27
   10.3058405       2.42666306E-27
   10.3298407       2.85577971E-27
   10.3538399       3.18764902E-27
   10.3778400       3.39583242E-27
   10.4018402       3.45863199E-27
   10.4258404       3.36023815E-27
   10.4498405       3.09155995E-27
   10.4738407       2.65072248E-27
   10.4978399       2.04321484E-27
   10.5218401       1.28169376E-27
   10.5458403       3.85463010E-28
   10.5698404      -6.20345309E-28
   10.5938406      -1.70583159E-27
   10.6178408      -2.83756657E-27
   10.6418400      -3.97991304E-27
   10.6658401      -5.09633149E-27
   10.6898403      -6.15054510E-27
   10.7138405      -7.10747267E-27
   10.7378407      -7.93383220E-27
   10.7618399      -8.59837201E-27
   10.7858400      -9.07174325E-27
   10.8098402      -9.32608773E-27
   10.8338404      -9.33448093E-27
   10.8578405      -9.07044056E-27
   10.8818407      -8.50773544E-27
   10.9058399      -7.62074840E-27
   10.9298401      -6.38560292E-27
   10.9538403      -4.78220924E-27
   10.9778404      -2.79724800E-27
   11.0018406      -4.28004804E-28
   11.0258408       2.31321539E-27
   11.0498400       5.39449703E-27
   11.0738401       8.76007155E-27
   11.0978403       1.23270217E-26
   11.1218405       1.59835669E-26
   11.1458406       1.95894655E-26
   11.1698399       2.29789758E-26
   11.1938400       2.59665985E-26
   11.2178402       2.83555529E-26
   11.2418404       2.99487252E-26
   11.2658405       3.05614421E-26
   11.2898407       3.00352812E-26
   11.3138399       2.82518022E-26
   11.3378401       2.51451170E-26
   11.3618402       2.07120592E-26
   11.3858404       1.50189102E-26
   11.4098406       8.20377054E-27
   11.4338408       4.74032941E-28
   11.4578400      -7.90125240E-27
   11.4818401      -1.66038688E-26
   11.5058403      -2.52830798E-26
   11.5298405      -3.35753314E-26
   11.5538406      -4.11255346E-26
   11.5778399      -4.76082179E-26
   11.6018400      -5.27467530E-26
   11.6258402      -5.63289149E-26
   11.6498404      -5.82173185E-26
   11.6738405      -5.83536559E-26
   11.6978407      -5.67562865E-26
   11.7218399      -5.35113873E-26
   11.7458401      -4.87585373E-26
   11.7698402      -4.26723799E-26
   11.7938404      -3.54424758E-26
   11.8178406      -2.72538192E-26
   11.8418407      -1.82706364E-26
   11.8658400      -8.62576413E-27
   11.8898401       1.58253769E-27
   11.9138403       1.22853954E-26
   11.9378405       2.34297729E-26
   11.9618406       3.49577701E-26
   11.9858398       4.67810541E-26
   12.0098400       5.87536576E-26
   12.0338402       7.06469869E-26
   12.0578403       8.21310637E-26
   12.0818405       9.27658331E-26
   12.1058407       1.02005317E-25
   12.1298399       1.09216498E-25
   12.1538401       1.13712833E-25
   12.1778402       1.14801029E-25
   12.2018404       1.11837451E-25
   12.2258406       1.04289704E-25
   12.2498407       9.17975434E-26
   12.2738400       7.42269178E-26
   12.2978401       5.17114840E-26
   12.3218403       2.46766892E-26
   12.3458405      -6.15682710E-27
   12.3698406      -3.97917834E-26
   12.3938398      -7.49939494E-26
   12.4178400      -1.10349820E-25
   12.4418402      -1.44337794E-25
   12.4658403      -1.75406415E-25
   12.4898405      -2.02053544E-25
   12.5138407      -2.22899724E-25
   12.5378399      -2.36750322E-25
   12.5618401      -2.42642718E-25
   12.5858402      -2.39876183E-25
   12.6098404      -2.28024559E-25
   12.6338406      -2.06933869E-25
   12.6578407      -1.76708528E-25
   12.6818399      -1.37690753E-25
   12.7058401      -9.04385887E-26
   12.7298403      -3.57074376E-26
   12.7538404       2.55609638E-26
   12.7778406       9.22395150E-26
   12.8018408       1.63005990E-25
   12.8258400       2.36324016E-25
   12.8498402       3.10417999E-25
   12.8738403       3.83247265E-25
   12.8978405       4.52485685E-25
   12.9218407       5.15513551E-25
   12.9458399       5.69429236E-25
   12.9698400       6.11087107E-25
   12.9938402       6.37165961E-25
   13.0178404       6.44272710E-25
   13.0418406       6.29080432E-25