  -7.50215960       0.00000000    
  -7.47815990       0.00000000    
  -7.45415974       0.00000000    
  -7.43015957       0.00000000    
  -7.40615988       0.00000000    
  -7.38215971       0.00000000    
  -7.35815954       0.00000000    
  -7.33415985       0.00000000    
  -7.31015968       0.00000000    
  -7.28615952       0.00000000    
  -7.26215982       0.00000000    
  -7.23815966       0.00000000    
  -7.21415949       0.00000000    
  -7.19015980       0.00000000    
  -7.16615963       0.00000000    
  -7.14215946       0.00000000    
  -7.11815977       0.00000000    
  -7.09415960       0.00000000    
  -7.07015991       0.00000000    
  -7.04615974       0.00000000    
  -7.02215958       0.00000000    
  -6.99815989       0.00000000    
  -6.97415972       0.00000000    
  -6.95015955       0.00000000    
  -6.92615986       0.00000000    
  -6.90215969       0.00000000    
  -6.87815952       0.00000000    
  -6.85415983       0.00000000    
  -6.83015966       0.00000000    
  -6.80615950       0.00000000    
  -6.78215981       0.00000000    
  -6.75815964       0.00000000    
  -6.73415947       0.00000000    
  -6.71015978       0.00000000    
  -6.68615961       0.00000000    
  -6.66215992       0.00000000    
  -6.63815975       0.00000000    
  -6.61415958       0.00000000    
  -6.59015989       0.00000000    
  -6.56615973       0.00000000    
  -6.54215956       0.00000000    
  -6.51815987       0.00000000    
  -6.49415970       0.00000000    
  -6.47015953       0.00000000    
  -6.44615984       0.00000000    
  -6.42215967       0.00000000    
  -6.39815950       0.00000000    
  -6.37415981       0.00000000    
  -6.35015965       0.00000000    
  -6.32615948       0.00000000    
  -6.30215979       0.00000000    
  -6.27815962       0.00000000    
  -6.25415993       0.00000000    
  -6.23015976       0.00000000    
  -6.20615959       0.00000000    
  -6.18215990       0.00000000    
  -6.15815973       0.00000000    
  -6.13415956       0.00000000    
  -6.11015987       0.00000000    
  -6.08615971       0.00000000    
  -6.06215954       0.00000000    
  -6.03815985       0.00000000    
  -6.01415968       0.00000000    
  -5.99015951       0.00000000    
  -5.96615982       0.00000000    
  -5.94215965       0.00000000    
  -5.91815948       0.00000000    
  -5.89415979       0.00000000    
  -5.87015963       0.00000000    
  -5.84615946       0.00000000    
  -5.82215977       0.00000000    
  -5.79815960       0.00000000    
  -5.77415991       0.00000000    
  -5.75015974       0.00000000    
  -5.72615957       0.00000000    
  -5.70215988       0.00000000    
  -5.67815971       0.00000000    
  -5.65415955       0.00000000    
  -5.63015985       0.00000000    
  -5.60615969       0.00000000    
  -5.58215952       0.00000000    
  -5.55815983       0.00000000    
  -5.53415966       0.00000000    
  -5.51015949       0.00000000    
  -5.48615980       0.00000000    
  -5.46215963       0.00000000    
  -5.43815947       0.00000000    
  -5.41415977       0.00000000    
  -5.39015961       0.00000000    
  -5.36615992       0.00000000    
  -5.34215975       0.00000000    
  -5.31815958       0.00000000    
  -5.29415989       0.00000000    
  -5.27015972       0.00000000    
  -5.24615955       0.00000000    
  -5.22215986       0.00000000    
  -5.19815969       0.00000000    
  -5.17415953       0.00000000    
  -5.15015984       0.00000000    
  -5.12615967       0.00000000    
  -5.10215950       0.00000000    
  -5.07815981       0.00000000    
  -5.05415964       0.00000000    
  -5.03015947       0.00000000    
  -5.00615978       0.00000000    
  -4.98215961       0.00000000    
  -4.95815992       0.00000000    
  -4.93415976       0.00000000    
  -4.91015959       0.00000000    
  -4.88615990       0.00000000    
  -4.86215973       0.00000000    
  -4.83815956       0.00000000    
  -4.81415987       0.00000000    
  -4.79015970       0.00000000    
  -4.76615953       0.00000000    
  -4.74215984       0.00000000    
  -4.71815968       0.00000000    
  -4.69415951       0.00000000    
  -4.67015982       0.00000000    
  -4.64615965       0.00000000    
  -4.62215948       0.00000000    
  -4.59815979       0.00000000    
  -4.57415962       0.00000000    
  -4.55015945       0.00000000    
  -4.52615976       0.00000000    
  -4.50215960       0.00000000    
  -4.47815990       0.00000000    
  -4.45415974       0.00000000    
  -4.43015957       0.00000000    
  -4.40615988       0.00000000    
  -4.38215971       0.00000000    
  -4.35815954       0.00000000    
  -4.33415985       0.00000000    
  -4.31015968       0.00000000    
  -4.28615952       0.00000000    
  -4.26215982       0.00000000    
  -4.23815966       0.00000000    
  -4.21415949       0.00000000    
  -4.19015980       0.00000000    
  -4.16615963       0.00000000    
  -4.14215946       0.00000000    
  -4.11815977       0.00000000    
  -4.09415960       0.00000000    
  -4.07015991       0.00000000    
  -4.04615974       0.00000000    
  -4.02215958       0.00000000    
  -3.99815965       0.00000000    
  -3.97415972       0.00000000    
  -3.95015979       0.00000000    
  -3.92615962       0.00000000    
  -3.90215969       0.00000000    
  -3.87815976       0.00000000    
  -3.85415959       0.00000000    
  -3.83015966       0.00000000    
  -3.80615973       0.00000000    
  -3.78215981       0.00000000    
  -3.75815964       0.00000000    
  -3.73415971       0.00000000    
  -3.71015978       0.00000000    
  -3.68615961       0.00000000    
  -3.66215968       0.00000000    
  -3.63815975       0.00000000    
  -3.61415958       0.00000000    
  -3.59015965       0.00000000    
  -3.56615973       0.00000000    
  -3.54215980       0.00000000    
  -3.51815963       0.00000000    
  -3.49415970       0.00000000    
  -3.47015977       0.00000000    
  -3.44615960       0.00000000    
  -3.42215967       0.00000000    
  -3.39815974       0.00000000    
  -3.37415957       0.00000000    
  -3.35015965       0.00000000    
  -3.32615972       0.00000000    
  -3.30215979       0.00000000    
  -3.27815962       0.00000000    
  -3.25415969       0.00000000    
  -3.23015976       0.00000000    
  -3.20615959       0.00000000    
  -3.18215966       0.00000000    
  -3.15815973       0.00000000    
  -3.13415980       0.00000000    
  -3.11015964       0.00000000    
  -3.08615971       0.00000000    
  -3.06215978       0.00000000    
  -3.03815961       0.00000000    
  -3.01415968       0.00000000    
  -2.99015975      -0.00000000    
  -2.96615958       0.00000000    
  -2.94215965       0.00000000    
  -2.91815972       0.00000000    
  -2.89415979       0.00000000    
  -2.87015963       0.00000000    
  -2.84615970       0.00000000    
  -2.82215977       0.00000000    
  -2.79815960       0.00000000    
  -2.77415967      -0.00000000    
  -2.75015974       0.00000000    
  -2.72615957       0.00000000    
  -2.70215964       0.00000000    
  -2.67815971       0.00000000    
  -2.65415978       0.00000000    
  -2.63015962       0.00000000    
  -2.60615969      -0.00000000    
  -2.58215976      -0.00000000    
  -2.55815959      -0.00000000    
  -2.53415966      -0.00000000    
  -2.51015973      -0.00000000    
  -2.48615980      -0.00000000    
  -2.46215963       0.00000000    
  -2.43815970       0.00000000    
  -2.41415977       0.00000000    
  -2.39015961       1.40129846E-45
  -2.36615968       1.40129846E-45
  -2.34215975       1.40129846E-45
  -2.31815958       1.40129846E-45
  -2.29415965       1.40129846E-45
  -2.27015972       1.40129846E-45
  -2.24615979      -1.40129846E-45
  -2.22215962      -2.80259693E-45
  -2.19815969      -5.60519386E-45
  -2.17415977      -5.60519386E-45
  -2.15015960      -5.60519386E-45
  -2.12615967      -2.80259693E-45
  -2.10215974       1.40129846E-45
  -2.07815957       2.80259693E-45
  -2.05415964       4.20389539E-45
  -2.03015971       4.20389539E-45
  -2.00615978       4.20389539E-45
  -1.98215973       7.00649232E-45
  -1.95815969       9.80908925E-45
  -1.93415964       1.82168800E-44
  -1.91015971       2.80259693E-44
  -1.88615966       2.52233724E-44
  -1.86215973       9.80908925E-45
  -1.83815968      -1.68155816E-44
  -1.81415963      -5.04467447E-44
  -1.79015970      -1.41531145E-43
  -1.76615965      -2.62042813E-43
  -1.74215972      -1.83570099E-43
  -1.71815968       1.14906474E-43
  -1.69415975       3.36311631E-43
  -1.67015970       3.95166167E-43
  -1.64615965       4.44211613E-43
  -1.62215972       4.79244075E-43
  -1.59815967       6.45998592E-43
  -1.57415974       7.76319349E-43
  -1.55015969       5.54914192E-43
  -1.52615964       2.85864887E-43
  -1.50215971      -4.06376555E-44
  -1.47815967      -4.91855761E-43
  -1.45415974      -8.67403749E-43
  -1.43015969      -1.01033619E-42
  -1.40615964      -1.08460501E-42
  -1.38215971      -1.23734654E-42
  -1.35815966      -1.22473486E-42
  -1.33415973      -9.06640106E-43
  -1.31015968      -3.20897348E-43
  -1.28615963       3.19496050E-43
  -1.26215971       8.61798556E-43
  -1.23815966       1.26256992E-42
  -1.21415973       1.33543744E-42
  -1.19015968       1.07619722E-42
  -1.16615963       5.96953146E-43
  -1.14215970      -8.82818033E-44
  -1.11815965      -8.68805048E-43
  -1.09415972      -1.50359325E-42
  -1.07015967      -1.62690752E-42
  -1.04615974      -1.28639199E-42
  -1.02215970      -8.35173885E-43
 -0.998159707      -1.97583083E-43
 -0.974159718       5.84341460E-43
 -0.950159669       1.30180627E-42
 -0.926159680       1.67315037E-42
 -0.902159691       1.55964519E-42
 -0.878159702       8.88423226E-43
 -0.854159713      -4.16185644E-43
 -0.830159664      -2.17341392E-42
 -0.806159675      -3.93064219E-42
 -0.782159686      -4.89053164E-42
 -0.758159697      -4.65511350E-42
 -0.734159708      -3.09967220E-42
 -0.710159659      -7.14662217E-44
 -0.686159670       4.01892400E-42
 -0.662159681       8.11912330E-42
 -0.638159692       1.13140838E-41
 -0.614159703       1.24911745E-41
 -0.590159714       1.07507618E-41
 -0.566159666       6.04660287E-42
 -0.542159677      -1.41671275E-42
 -0.518159688      -1.05798034E-41
 -0.494159698      -1.91095072E-41
 -0.470159680      -2.47497335E-41
 -0.446159691      -2.56241437E-41
 -0.422159702      -2.01226459E-41
 -0.398159683      -7.73656882E-42
 -0.374159694       9.95622559E-42
 -0.350159675       2.95603911E-41
 -0.326159686       4.66268051E-41
 -0.302159697       5.60477347E-41
 -0.278159678       5.33978793E-41
 -0.254159689       3.62838211E-41
 -0.230159685       5.21142899E-42
 -0.206159696      -3.59433056E-41
 -0.182159692      -7.95867463E-41
 -0.158159688      -1.15827127E-40
 -0.134159684      -1.33364377E-40
 -0.110159688      -1.22969545E-40
  -8.61596912E-02  -7.99777086E-41
  -6.21596873E-02  -5.96672886E-42
  -3.81596908E-02   8.94140524E-41
  -1.41596887E-02   1.90066519E-40
   9.84031055E-03   2.74578829E-40
   3.38403098E-02   3.19774908E-40
   5.78403100E-02   3.06350469E-40
   8.18403140E-02   2.23830805E-40
  0.105840310       7.41721290E-41
  0.129840314      -1.25256465E-40
  0.153840318      -3.42911747E-40
  0.177840307      -5.37643188E-40
  0.201840311      -6.65664415E-40
  0.225840315      -6.89762544E-40
  0.249840304      -5.88328154E-40
  0.273840308      -3.62805982E-40
  0.297840297      -4.03784152E-41
  0.321840316       3.28691370E-40
  0.345840305       6.78745536E-40
  0.369840324       9.41528234E-40
  0.393840313       1.06154945E-39
  0.417840302       1.01066550E-39
  0.441840321       7.97656921E-40
  0.465840310       4.69778304E-40
  0.489840299       1.05348217E-40
  0.513840318      -2.04774547E-40
  0.537840307      -3.81298917E-40
  0.561840296      -3.81493698E-40
  0.585840285      -2.20460682E-40
  0.609840333       2.00133447E-41
  0.633840322       2.00926582E-40
  0.657840312       1.53548681E-40
  0.681840301      -2.76687783E-40
  0.705840290      -1.17539934E-39
  0.729840338      -2.50844476E-39
  0.753840327      -4.08815935E-39
  0.777840316      -5.56884137E-39
  0.801840305      -6.48325588E-39
  0.825840294      -6.32038857E-39
  0.849840283      -4.63774020E-39
  0.873840332      -1.19059642E-39
  0.897840321       3.94774364E-39
  0.921840310       1.03047537E-38
  0.945840299       1.69956708E-38
  0.969840288       2.27966625E-38
  0.993840337       2.63101214E-38
   1.01784027       2.62069466E-38
   1.04184031       2.15113481E-38
   1.06584036       1.18750040E-38
   1.08984029      -2.21711761E-39
   1.11384034      -1.93659784E-38
   1.13784027      -3.73450749E-38
   1.16184032      -5.33628636E-38
   1.18584037      -6.44810179E-38
   1.20984030      -6.81266023E-38
   1.23384035      -6.26056041E-38
   1.25784028      -4.75153909E-38
   1.28184032      -2.39545975E-38
   1.30584025       5.53892645E-39
   1.32984030       3.73411989E-38
   1.35384035       6.73432204E-38
   1.37784028       9.16925693E-38
   1.40184033       1.07523526E-37
   1.42584026       1.13499537E-37
   1.44984031       1.10014149E-37
   1.47384036       9.89572649E-38
   1.49784029       8.30477069E-38
   1.52184033       6.48505851E-38
   1.54584026       4.57014268E-38
   1.56984031       2.48368774E-38
   1.59384036      -9.54057244E-40
   1.61784029      -3.69096606E-38
   1.64184034      -8.89949969E-38
   1.66584027      -1.61815904E-37
   1.68984032      -2.56076779E-37
   1.71384037      -3.66122631E-37
   1.73784029      -4.78242449E-37
   1.76184034      -5.70423808E-37
   1.78584027      -6.14096205E-37
   1.80984032      -5.78089247E-37
   1.83384037      -4.34583773E-37
   1.85784030      -1.66324879E-37
   1.88184035       2.26107915E-37
   1.90584028       7.18516124E-37
   1.92984033       1.26039761E-36
   1.95384026       1.77673722E-36
   1.97784030       2.17506131E-36
   2.00184035       2.35765951E-36
   2.02584028       2.23782208E-36
   2.04984021       1.75789193E-36
   2.07384038       9.06099945E-37
   2.09784031      -2.71229883E-37
   2.12184024      -1.66532318E-36
   2.14584041      -3.11078932E-36
   2.16984034      -4.40248929E-36
   2.19384027      -5.32236241E-36
   2.21784019      -5.67308648E-36
   2.24184036      -5.31363660E-36
   2.26584029      -4.19066391E-36
   2.28984022      -2.35945461E-36
   2.31384039       1.07861810E-38
   2.33784032       2.65040829E-36
   2.36184025       5.22157762E-36
   2.38584042       7.36583816E-36
   2.40984035       8.76017578E-36
   2.43384027       9.17232057E-36
   2.45784020       8.50505247E-36
   2.48184037       6.82016456E-36
   2.50584030       4.33558678E-36
   2.52984023       1.39368858E-36
   2.55384040      -1.59577053E-36
   2.57784033      -4.22906513E-36
   2.60184026      -6.18502166E-36
   2.62584043      -7.28914404E-36
   2.64984035      -7.55059755E-36
   2.67384028      -7.16123944E-36
   2.69784021      -6.45259801E-36
   2.72184038      -5.81526827E-36
   2.74584031      -5.59407495E-36
   2.76984024      -5.97963516E-36
   2.79384041      -6.92106809E-36
   2.81784034      -8.08398672E-36
   2.84184027      -8.87203070E-36
   2.86584020      -8.51947208E-36
   2.88984036      -6.24820806E-36
   2.91384029      -1.46721169E-36
   2.93784022       6.02085781E-36
   2.96184039       1.58495525E-35
   2.98584032       2.69996215E-35
   3.00984025       3.78275603E-35
   3.03384042       4.62313519E-35
   3.05784035       4.99492001E-35
   3.08184028       4.69597997E-35
   3.10584021       3.59269616E-35
   3.12984037       1.66121200E-35
   3.15384030      -9.82958865E-36
   3.17784023      -4.07473551E-35
   3.20184040      -7.21419709E-35
   3.22584033      -9.90816956E-35
   3.24984026      -1.16360464E-34
   3.27384043      -1.19324937E-34
   3.29784036      -1.04755293E-34
   3.32184029      -7.16578486E-35
   3.34584022      -2.18212217E-35
   3.36984038       3.99934775E-35
   3.39384031       1.06314395E-34
   3.41784024       1.67695840E-34
   3.44184041       2.13878626E-34
   3.46584034       2.35247162E-34
   3.48984027       2.24394433E-34
   3.51384020       1.77567640E-34
   3.53784037       9.57601894E-35
   3.56184030      -1.47538288E-35
   3.58584023      -1.42584078E-34
   3.60984039      -2.72138123E-34
   3.63384032      -3.85233422E-34
   3.65784025      -4.63252314E-34
   3.68184042      -4.89599596E-34
   3.70584035      -4.52165198E-34
   3.72984028      -3.45475058E-34
   3.75384021      -1.72236853E-34
   3.77784038       5.59562862E-35
   3.80184031       3.18912214E-34
   3.82584023       5.89161442E-34
   3.84984040       8.34250453E-34
   3.87384033       1.01984769E-33
   3.89784026       1.11341300E-33
   3.92184043       1.08812702E-33
   3.94584036       9.26727053E-34
   3.96984029       6.24877874E-34
   3.99384022       1.93694286E-34
   4.01784039      -3.38951982E-34
   4.04184008      -9.28677088E-34
   4.06584024      -1.51665275E-33
   4.08984041      -2.03365408E-33
   4.11384010      -2.40608651E-33
   4.13784027      -2.56376236E-33
   4.16184044      -2.44892648E-33
   4.18584013      -2.02572813E-33
   4.20984030      -1.28904352E-33
   4.23384047      -2.71339797E-34
   4.25784016       9.53824402E-34
   4.28184032       2.27294873E-33
   4.30584049       3.53933929E-33
   4.32984018       4.58580073E-33
   4.35384035       5.24280325E-33
   4.37784052       5.36070644E-33
   4.40184021       4.83365775E-33
   4.42584038       3.62200225E-33
   4.44984055       1.76957469E-33
   4.47384024      -5.87715033E-34
   4.49784040      -3.22494157E-33
   4.52184010      -5.84455865E-33
   4.54584026      -8.10602390E-33
   4.56984043      -9.66643021E-33
   4.59384012      -1.02277861E-32
   4.61784029      -9.58479506E-33
   4.64184046      -7.66587841E-33
   4.66584015      -4.56017054E-33
   4.68984032      -5.24328337E-34
   4.71384048       4.03458718E-33
   4.73784018       8.60054409E-33
   4.76184034       1.26107372E-32
   4.78584051       1.55310810E-32
   4.80984020       1.69343700E-32
   4.83384037       1.65687236E-32
   4.85784054       1.44040626E-32
   4.88184023       1.06467719E-32
   4.90584040       5.71705424E-33
   4.92984009       1.89526469E-34
   4.95384026      -5.29574164E-33
   4.97784042      -1.01382861E-32
   5.00184011      -1.38803593E-32
   5.02584028      -1.62882345E-32
   5.04984045      -1.73935460E-32
   5.07384014      -1.74818888E-32
   5.09784031      -1.70246759E-32
   5.12184048      -1.65609566E-32
   5.14584017      -1.65471827E-32
   5.16984034      -1.72023386E-32
   5.19384050      -1.83815710E-32
   5.21784019      -1.95115958E-32
   5.24184036      -1.96147836E-32
   5.26584053      -1.74360401E-32
   5.28984022      -1.16686556E-32
   5.31384039      -1.25473938E-33
   5.33784008       1.42839373E-32
   5.36184025       3.45441291E-32
   5.38584042       5.80346910E-32
   5.40984011       8.21277172E-32
   5.43384027       1.03213141E-31
   5.45784044       1.17074700E-31
   5.48184013       1.19468500E-31
   5.50584030       1.06845501E-31
   5.52984047       7.71218157E-32
   5.55384016       3.03734633E-32
   5.57784033      -3.06788979E-32
   5.60184050      -1.00519143E-31
   5.62584019      -1.71109707E-31
   5.64984035      -2.32626994E-31
   5.67384052      -2.74624539E-31
   5.69784021      -2.87514234E-31
   5.72184038      -2.64184762E-31
   5.74584007      -2.01523860E-31
   5.76984024      -1.01587550E-31
   5.79384041       2.78257645E-32
   5.81784010       1.73383254E-31
   5.84184027       3.17298557E-31
   5.86584044       4.39255061E-31
   5.88984013       5.19003419E-31
   5.91384029       5.39335381E-31
   5.93784046       4.89035460E-31
   5.96184015       3.65357727E-31
   5.98584032       1.75586542E-31
   6.00984049      -6.26800801E-32
   6.03384018      -3.22737804E-31
   6.05784035      -5.71486985E-31
   6.08184052      -7.73432730E-31
   6.10584021      -8.95535607E-31
   6.12984037      -9.12288752E-31
   6.15384054      -8.10289133E-31
   6.17784023      -5.91553802E-31
   6.20184040      -2.74938560E-31
   6.22584009       1.04775855E-31
   6.24984026       5.00259551E-31
   6.27384043       8.57242891E-31
   6.29784012       1.12176796E-30
   6.32184029       1.24817376E-30
   6.34584045       1.20669714E-30
   6.36984015       9.89505096E-31
   6.39384031       6.14084691E-31
   6.41784048       1.23198931E-31
   6.44184017      -4.18944729E-31
   6.46584034      -9.34134234E-31
   6.48984051      -1.34045618E-30
   6.51384020      -1.56420701E-30
   6.53784037      -1.55178617E-30
   6.56184053      -1.27978167E-30
   6.58584023      -7.61550598E-31
   6.60984039      -4.89560307E-32
   6.63384008       7.71477554E-31
   6.65784025       1.58796084E-30
   6.68184042       2.27751918E-30
   6.70584011       2.72309247E-30
   6.72984028       2.83138484E-30
   6.75384045       2.54886296E-30
   6.77784014       1.87334096E-30
   6.80184031       8.59018264E-31
   6.82584047      -3.86367267E-31
   6.84984016      -1.71254236E-30
   6.87384033      -2.94492142E-30
   6.89784050      -3.90794169E-30
   6.92184019      -4.45044982E-30
   6.94584036      -4.46950525E-30
   6.96984053      -3.92891589E-30
   6.99384022      -2.86929444E-30
   7.01784039      -1.40747543E-30
   7.04184008       2.75427613E-31
   7.06584024       1.95636998E-30
   7.08984041       3.40049488E-30
   7.11384010       4.39499583E-30
   7.13784027       4.78181322E-30
   7.16184044       4.48405730E-30
   7.18584013       3.52165920E-30
   7.20984030       2.01309633E-30
   7.23384047       1.62012885E-31
   7.25784016      -1.77014328E-30
   7.28184032      -3.50201960E-30
   7.30584049      -4.77539333E-30
   7.32984018      -5.39669532E-30
   7.35384035      -5.27012034E-30
   7.37784052      -4.41626005E-30
   7.40184021      -2.97210938E-30
   7.42584038      -1.17110327E-30
   7.44984055       6.94929409E-31
   7.47384024       2.32670769E-30
   7.49784040       3.47346694E-30
   7.52184010       3.98441315E-30
   7.54584026       3.84592298E-30
   7.56984043       3.19617591E-30
   7.59384012       2.31191113E-30
   7.61784029       1.56627776E-30
   7.64184046       1.36170657E-30
   7.66584015       2.04663704E-30
   7.68984032       3.82896577E-30
   7.71384048       6.70145229E-30
   7.73784018       1.03944425E-29
   7.76184034       1.43688081E-29
   7.78584051       1.78570720E-29
   7.80984020       1.99537085E-29
   7.83384037       1.97475332E-29
   7.85784054       1.64809965E-29
   7.88184023       9.71440794E-30
   7.90584040      -5.31069070E-31
   7.92984009      -1.36784329E-29
   7.95384026      -2.85711467E-29
   7.97784042      -4.35362753E-29
   8.00184059      -5.65388092E-29
   8.02584076      -6.54181106E-29
   8.04983997      -6.81834089E-29
   8.07384014      -6.33331349E-29
   8.09784031      -5.01539151E-29
   8.12184048      -2.89521016E-29
   8.14584064      -1.17401445E-30
   8.16983986       3.06187292E-29
   8.19384003       6.29355929E-29
   8.21784019       9.17009335E-29
   8.24184036       1.12727773E-28
   8.26584053       1.22271779E-28
   8.28984070       1.17597993E-28
   8.31383991       9.74827918E-29
   8.33784008       6.25731028E-29
   8.36184025       1.55356914E-29
   8.38584042      -3.90494153E-29
   8.40984058      -9.50666646E-29
   8.43384075      -1.45493776E-28
   8.45783997      -1.83224080E-28
   8.48184013      -2.01992303E-28
   8.50584030      -1.97289688E-28
   8.52984047      -1.67143708E-28
   8.55384064      -1.12643429E-28
   8.57783985      -3.81139430E-29
   8.60184002       4.91186254E-29
   8.62584019       1.39380236E-28
   8.64984035       2.21673116E-28
   8.67384052       2.84969719E-28
   8.69784069       3.19629404E-28
   8.72183990       3.18761219E-28
   8.74584007       2.79347905E-28
   8.76984024       2.02962514E-28
   8.79384041       9.59497155E-29
   8.81784058      -3.09955614E-29
   8.84184074      -1.63843422E-28
   8.86583996      -2.86750385E-28
   8.88984013      -3.83924433E-28
   8.91384029      -4.41613907E-28
   8.93784046      -4.49968157E-28
   8.96184063      -4.04518763E-28
   8.98583984      -3.07063313E-28
   9.00984001      -1.65800227E-28
   9.03384018       5.34513494E-30
   9.05784035       1.88158938E-28
   9.08184052       3.62191974E-28
   9.10584068       5.07186718E-28
   9.12983990       6.05575112E-28
   9.15384007       6.44719734E-28
   9.17784023       6.18590354E-28
   9.20184040       5.28633488E-28
   9.22584057       3.83692262E-28
   9.24984074       1.98962033E-28
   9.27383995      -5.89988138E-30
   9.29784012      -2.09266950E-28
   9.32184029      -3.90302463E-28
   9.34584045      -5.31598409E-28
   9.36984062      -6.21314678E-28
   9.39383984      -6.54501051E-28
   9.41784000      -6.33397096E-28
   9.44184017      -5.66656834E-28
   9.46584034      -4.67607413E-28
   9.48984051      -3.51810706E-28
   9.51384068      -2.34316557E-28
   9.53783989      -1.27066875E-28
   9.56184006      -3.69059275E-29
   9.58584023       3.54224167E-29
   9.60984039       9.50540738E-29
   9.63384056       1.51517748E-28
   9.65784073       2.16156218E-28
   9.68183994       2.98837570E-28
   9.70584011       4.04502151E-28
   9.72984028       5.30181503E-28
   9.75384045       6.63120791E-28
   9.77784061       7.80525192E-28
   9.80184078       8.51245917E-28
   9.82584000       8.39438907E-28
   9.84984016       7.09907503E-28
   9.87384033       4.34531107E-28
   9.89784050      -1.08540522E-30
   9.92184067      -5.91751942E-28
   9.94583988      -1.30866535E-27
   9.96984005      -2.09811656E-27
   9.99384022      -2.88355585E-27
   10.0178404      -3.57123071E-27
   10.0418406      -4.05912462E-27
   10.0658407      -4.24842504E-27
   10.0898399      -4.05629928E-27
   10.1138401      -3.42842955E-27
   10.1378403      -2.34963030E-27
   10.1618404      -8.50920627E-28
   10.1858406       9.88251758E-28
   10.2098408       3.04343558E-27
   10.2338400       5.15439790E-27
   10.2578402       7.13952939E-27
   10.2818403       8.81411854E-27
   10.3058405       1.00105471E-26
   10.3298407       1.05980728E-26
   10.3538399       1.04997186E-26
   10.3778400       9.70397136E-27
   10.4018402       8.26948096E-27
   10.4258404       6.32169787E-27
   10.4498405       4.04131477E-27
   10.4738407       1.64540611E-27
   10.4978399      -6.36902577E-28
   10.5218401      -2.59159893E-27
   10.5458403      -4.04665268E-27
   10.5698404      -4.89531833E-27
   10.5938406      -5.11283132E-27
   10.6178408      -4.76411358E-27
   10.6418400      -4.00102779E-27
   10.6658401      -3.04888750E-27
   10.6898403      -2.18318141E-27
   10.7138405      -1.69863111E-27
   10.7378407      -1.87368659E-27
   10.7618399      -2.93421186E-27
   10.7858400      -5.02035856E-27
   10.8098402      -8.16042556E-27
   10.8338404      -1.22549156E-26
   10.8578405      -1.70730023E-26
   10.8818407      -2.22624282E-26
   10.9058399      -2.73725027E-26
   10.9298401      -3.18885589E-26
   10.9538403      -3.52750555E-26
   10.9778404      -3.70236643E-26
   11.0018406      -3.67020279E-26
   11.0258408      -3.39988696E-26
   11.0498400      -2.87612307E-26
   11.0738401      -2.10203051E-26
   11.0978403      -1.10031267E-26
   11.1218405       8.71385174E-28
   11.1458406       1.40124700E-26
   11.1698399       2.76927340E-26
   11.1938400       4.10964145E-26
   11.2178402       5.33775459E-26
   11.2418404       6.37238881E-26
   11.2658405       7.14219195E-26
   11.2898407       7.59177425E-26
   11.3138399       7.68686527E-26
   11.3378401       7.41806523E-26
   11.3618402       6.80275373E-26
   11.3858404       5.88486353E-26
   11.4098406       4.73235716E-26
   11.4338408       3.43242039E-26
   11.4578400       2.08461394E-26
   11.4818401       7.92412936E-27
   11.5058403      -3.46224465E-27
   11.5298405      -1.24844326E-26
   11.5538406      -1.85531672E-26
   11.5778399      -2.13894812E-26
   11.6018400      -2.10695981E-26
   11.6258402      -1.80363540E-26
   11.6498404      -1.30725931E-26
   11.6738405      -7.23543222E-27
   11.6978407      -1.75450080E-27
   11.7218399       2.09841411E-27
   11.7458401       3.15681392E-27
   11.7698402       5.09322526E-28
   11.7938404      -6.36484872E-27
   11.8178406      -1.74918104E-26
   11.8418407      -3.23455343E-26
   11.8658400      -4.98487800E-26
   11.8898401      -6.84387741E-26
   11.9138403      -8.61970315E-26
   11.9378405      -1.01035659E-25
   11.9618406      -1.10924813E-25
   11.9858398      -1.14139939E-25
   12.0098400      -1.09502768E-25
   12.0338402      -9.65882895E-26
   12.0578403      -7.58706574E-26
   12.0818405      -4.87856513E-26
   12.1058407      -1.76941100E-26
   12.1298399       1.42595283E-26
   12.1538401       4.33884530E-26
   12.1778402       6.57880166E-26
   12.2018404       7.77168446E-26
   12.2258406       7.59992787E-26
   12.2498407       5.84094370E-26
   12.2738400       2.39959685E-26
   12.2978401      -2.66897775E-26
   12.3218403      -9.14915947E-26
   12.3458405      -1.66690143E-25
   12.3698406      -2.47192794E-25
   12.3938398      -3.26860103E-25
   12.4178400      -3.98943279E-25
   12.4418402      -4.56594319E-25
   12.4658403      -4.93401780E-25
   12.4898405      -5.03900828E-25
   12.5138407      -4.84008468E-25
   12.5378399      -4.31341205E-25
   12.5618401      -3.45384037E-25
   12.5858402      -2.27496293E-25
   12.6098404      -8.07563626E-26
   12.6338406       9.03333621E-26
   12.6578407       2.80245277E-25
   12.6818399       4.82880200E-25
   12.7058401       6.92019749E-25
   12.7298403       9.01722446E-25
   12.7538404       1.10661240E-24
   12.7778406       1.30202400E-24
   12.8018408       1.48398374E-24
   12.8258400       1.64902941E-24
   12.8498402       1.79388942E-24
   12.8738403       1.91506753E-24
   12.8978405       2.00839214E-24
   12.9218407       2.06860096E-24
   12.9458399       2.08903581E-24
   12.9698400       2.06151305E-24
   12.9938402       1.97643026E-24
   13.0178404       1.82313624E-24
   13.0418406       1.59057659E-24