  -7.50215960       0.00000000    
  -7.47815990       0.00000000    
  -7.45415974       0.00000000    
  -7.43015957       0.00000000    
  -7.40615988       0.00000000    
  -7.38215971       0.00000000    
  -7.35815954       0.00000000    
  -7.33415985       0.00000000    
  -7.31015968       0.00000000    
  -7.28615952       0.00000000    
  -7.26215982       0.00000000    
  -7.23815966       0.00000000    
  -7.21415949       0.00000000    
  -7.19015980       0.00000000    
  -7.16615963       0.00000000    
  -7.14215946       0.00000000    
  -7.11815977       0.00000000    
  -7.09415960       0.00000000    
  -7.07015991       0.00000000    
  -7.04615974       0.00000000    
  -7.02215958       0.00000000    
  -6.99815989       0.00000000    
  -6.97415972       0.00000000    
  -6.95015955       0.00000000    
  -6.92615986       0.00000000    
  -6.90215969       0.00000000    
  -6.87815952       0.00000000    
  -6.85415983       0.00000000    
  -6.83015966       0.00000000    
  -6.80615950       0.00000000    
  -6.78215981       0.00000000    
  -6.75815964       0.00000000    
  -6.73415947       0.00000000    
  -6.71015978       0.00000000    
  -6.68615961       0.00000000    
  -6.66215992       0.00000000    
  -6.63815975       0.00000000    
  -6.61415958       0.00000000    
  -6.59015989       0.00000000    
  -6.56615973       0.00000000    
  -6.54215956       0.00000000    
  -6.51815987       0.00000000    
  -6.49415970       0.00000000    
  -6.47015953       0.00000000    
  -6.44615984       0.00000000    
  -6.42215967       0.00000000    
  -6.39815950       0.00000000    
  -6.37415981       0.00000000    
  -6.35015965       0.00000000    
  -6.32615948       0.00000000    
  -6.30215979       0.00000000    
  -6.27815962       0.00000000    
  -6.25415993       0.00000000    
  -6.23015976       0.00000000    
  -6.20615959       0.00000000    
  -6.18215990       0.00000000    
  -6.15815973       0.00000000    
  -6.13415956       0.00000000    
  -6.11015987       0.00000000    
  -6.08615971       0.00000000    
  -6.06215954       0.00000000    
  -6.03815985       0.00000000    
  -6.01415968       0.00000000    
  -5.99015951       0.00000000    
  -5.96615982       0.00000000    
  -5.94215965       0.00000000    
  -5.91815948       0.00000000    
  -5.89415979       0.00000000    
  -5.87015963       0.00000000    
  -5.84615946       0.00000000    
  -5.82215977       0.00000000    
  -5.79815960       0.00000000    
  -5.77415991       0.00000000    
  -5.75015974       0.00000000    
  -5.72615957       0.00000000    
  -5.70215988       0.00000000    
  -5.67815971       0.00000000    
  -5.65415955       0.00000000    
  -5.63015985       0.00000000    
  -5.60615969       0.00000000    
  -5.58215952       0.00000000    
  -5.55815983       0.00000000    
  -5.53415966       0.00000000    
  -5.51015949       0.00000000    
  -5.48615980       0.00000000    
  -5.46215963       0.00000000    
  -5.43815947       0.00000000    
  -5.41415977       0.00000000    
  -5.39015961       0.00000000    
  -5.36615992       0.00000000    
  -5.34215975       0.00000000    
  -5.31815958       0.00000000    
  -5.29415989       0.00000000    
  -5.27015972       0.00000000    
  -5.24615955       0.00000000    
  -5.22215986       0.00000000    
  -5.19815969       0.00000000    
  -5.17415953       0.00000000    
  -5.15015984       0.00000000    
  -5.12615967       0.00000000    
  -5.10215950       0.00000000    
  -5.07815981       0.00000000    
  -5.05415964       0.00000000    
  -5.03015947       0.00000000    
  -5.00615978       0.00000000    
  -4.98215961       0.00000000    
  -4.95815992       0.00000000    
  -4.93415976       0.00000000    
  -4.91015959       0.00000000    
  -4.88615990       0.00000000    
  -4.86215973       0.00000000    
  -4.83815956       0.00000000    
  -4.81415987       0.00000000    
  -4.79015970       0.00000000    
  -4.76615953       0.00000000    
  -4.74215984       0.00000000    
  -4.71815968       0.00000000    
  -4.69415951       0.00000000    
  -4.67015982       0.00000000    
  -4.64615965       0.00000000    
  -4.62215948       0.00000000    
  -4.59815979       0.00000000    
  -4.57415962       0.00000000    
  -4.55015945       0.00000000    
  -4.52615976       0.00000000    
  -4.50215960       0.00000000    
  -4.47815990       0.00000000    
  -4.45415974       0.00000000    
  -4.43015957       0.00000000    
  -4.40615988       0.00000000    
  -4.38215971       0.00000000    
  -4.35815954       0.00000000    
  -4.33415985       0.00000000    
  -4.31015968       0.00000000    
  -4.28615952       0.00000000    
  -4.26215982       0.00000000    
  -4.23815966       0.00000000    
  -4.21415949       0.00000000    
  -4.19015980       0.00000000    
  -4.16615963       0.00000000    
  -4.14215946       0.00000000    
  -4.11815977       0.00000000    
  -4.09415960       0.00000000    
  -4.07015991       0.00000000    
  -4.04615974       0.00000000    
  -4.02215958       0.00000000    
  -3.99815965       0.00000000    
  -3.97415972       0.00000000    
  -3.95015979       0.00000000    
  -3.92615962       0.00000000    
  -3.90215969       0.00000000    
  -3.87815976       0.00000000    
  -3.85415959       0.00000000    
  -3.83015966       0.00000000    
  -3.80615973       0.00000000    
  -3.78215981       0.00000000    
  -3.75815964       0.00000000    
  -3.73415971       0.00000000    
  -3.71015978       0.00000000    
  -3.68615961       0.00000000    
  -3.66215968       0.00000000    
  -3.63815975       0.00000000    
  -3.61415958       0.00000000    
  -3.59015965       0.00000000    
  -3.56615973       0.00000000    
  -3.54215980       0.00000000    
  -3.51815963       0.00000000    
  -3.49415970       0.00000000    
  -3.47015977       0.00000000    
  -3.44615960       0.00000000    
  -3.42215967       0.00000000    
  -3.39815974       0.00000000    
  -3.37415957       0.00000000    
  -3.35015965       0.00000000    
  -3.32615972       0.00000000    
  -3.30215979       0.00000000    
  -3.27815962       0.00000000    
  -3.25415969       0.00000000    
  -3.23015976       0.00000000    
  -3.20615959       0.00000000    
  -3.18215966       0.00000000    
  -3.15815973       0.00000000    
  -3.13415980       0.00000000    
  -3.11015964      -0.00000000    
  -3.08615971      -0.00000000    
  -3.06215978      -0.00000000    
  -3.03815961      -0.00000000    
  -3.01415968      -0.00000000    
  -2.99015975      -0.00000000    
  -2.96615958      -0.00000000    
  -2.94215965      -0.00000000    
  -2.91815972      -0.00000000    
  -2.89415979       0.00000000    
  -2.87015963       0.00000000    
  -2.84615970       0.00000000    
  -2.82215977       0.00000000    
  -2.79815960      -0.00000000    
  -2.77415967      -0.00000000    
  -2.75015974      -0.00000000    
  -2.72615957      -0.00000000    
  -2.70215964      -0.00000000    
  -2.67815971      -0.00000000    
  -2.65415978      -0.00000000    
  -2.63015962      -0.00000000    
  -2.60615969      -0.00000000    
  -2.58215976      -0.00000000    
  -2.55815959      -0.00000000    
  -2.53415966      -0.00000000    
  -2.51015973      -0.00000000    
  -2.48615980      -0.00000000    
  -2.46215963      -0.00000000    
  -2.43815970      -0.00000000    
  -2.41415977      -0.00000000    
  -2.39015961      -0.00000000    
  -2.36615968       0.00000000    
  -2.34215975       0.00000000    
  -2.31815958       1.40129846E-45
  -2.29415965       2.80259693E-45
  -2.27015972       4.20389539E-45
  -2.24615979       4.20389539E-45
  -2.22215962       5.60519386E-45
  -2.19815969       5.60519386E-45
  -2.17415977       4.20389539E-45
  -2.15015960       2.80259693E-45
  -2.12615967      -1.40129846E-45
  -2.10215974      -4.20389539E-45
  -2.07815957      -7.00649232E-45
  -2.05415964      -9.80908925E-45
  -2.03015971      -1.26116862E-44
  -2.00615978      -1.40129846E-44
  -1.98215973      -1.26116862E-44
  -1.95815969      -9.80908925E-45
  -1.93415964      -5.60519386E-45
  -1.91015971      -0.00000000    
  -1.88615966       4.20389539E-45
  -1.86215973       7.00649232E-45
  -1.83815968      -0.00000000    
  -1.81415963      -1.68155816E-44
  -1.79015970      -3.92363570E-44
  -1.76615965      -6.44597294E-44
  -1.74215972      -9.66895940E-44
  -1.71815968      -1.41531145E-43
  -1.69415975      -1.49938936E-43
  -1.67015970      -1.02294788E-43
  -1.64615965      -3.92363570E-44
  -1.62215972       6.16571324E-44
  -1.59815967       2.11596068E-43
  -1.57415974       3.46120721E-43
  -1.55015969       4.66632389E-43
  -1.52615964       5.63321983E-43
  -1.50215971       5.52111595E-43
  -1.47815967       4.30198629E-43
  -1.45415974       1.77964905E-43
  -1.43015969      -1.94780487E-43
  -1.40615964      -6.33386906E-43
  -1.38215971      -1.07619722E-42
  -1.35815966      -1.41531145E-42
  -1.33415973      -1.53862571E-42
  -1.31015968      -1.34524653E-42
  -1.28615963      -7.84727140E-43
  -1.26215971       7.00649232E-44
  -1.23815966       1.04676995E-42
  -1.21415973       2.00806070E-42
  -1.19015968       2.72132162E-42
  -1.16615963       2.97215404E-42
  -1.14215970       2.55877100E-42
  -1.11815965       1.38588418E-42
  -1.09415972      -3.96567465E-43
  -1.07015967      -2.50972555E-42
  -1.04615974      -4.58504858E-42
  -1.02215970      -6.08303663E-42
 -0.998159707      -6.46138722E-42
 -0.974159718      -5.37117701E-42
 -0.950159669      -2.57979047E-42
 -0.926159680       1.65213089E-42
 -0.902159691       6.55247162E-42
 -0.878159702       1.10912773E-41
 -0.854159713       1.41194833E-41
 -0.830159664       1.45398729E-41
 -0.806159675       1.15845344E-41
 -0.782159686       5.08671343E-42
 -0.758159697      -4.30478888E-42
 -0.734159708      -1.49364403E-41
 -0.710159659      -2.46138075E-41
 -0.686159670      -3.08271649E-41
 -0.662159681      -3.11312467E-41
 -0.638159692      -2.39397830E-41
 -0.614159703      -9.17430105E-42
 -0.590159714       1.15410942E-41
 -0.566159666       3.47634123E-41
 -0.542159677       5.55348594E-41
 -0.518159688       6.82039989E-41
 -0.494159698       6.76140522E-41
 -0.470159680       5.05770655E-41
 -0.446159691       1.70566049E-41
 -0.422159702      -2.90853509E-41
 -0.398159683      -8.00870098E-41
 -0.374159694      -1.25245254E-40
 -0.350159675      -1.52619620E-40
 -0.326159686      -1.51459345E-40
 -0.302159697      -1.15139090E-40
 -0.278159678      -4.37079004E-41
 -0.254159689       5.45973908E-41
 -0.230159685       1.63542741E-40
 -0.206159696       2.60607883E-40
 -0.182159692       3.20710976E-40
 -0.158159688       3.21578379E-40
 -0.134159684       2.49557244E-40
 -0.110159688       1.04766678E-40
  -8.61596912E-02  -9.60267799E-41
  -6.21596873E-02  -3.19313881E-40
  -3.81596908E-02  -5.18731264E-40
  -1.41596887E-02  -6.43218416E-40
   9.84031055E-03  -6.47516198E-40
   3.38403098E-02  -5.03906928E-40
   5.78403100E-02  -2.12602200E-40
   8.18403140E-02   1.92088592E-40
  0.105840310       6.42073555E-40
  0.129840314       1.04350212E-39
  0.153840318       1.29267261E-39
  0.177840307       1.29774671E-39
  0.201840311       1.00235019E-39
  0.225840315       4.06460633E-40
  0.249840304      -4.20915026E-40
  0.273840308      -1.34213424E-39
  0.297840297      -2.16702820E-39
  0.321840316      -2.68451511E-39
  0.345840305      -2.70585689E-39
  0.369840324      -2.11225565E-39
  0.393840313      -8.97467207E-40
  0.417840302       8.05899359E-40
  0.441840321       2.72576233E-39
  0.465840310       4.48079757E-39
  0.489840299       5.64158137E-39
  0.513840318       5.81583144E-39
  0.537840307       4.74376244E-39
  0.561840296       2.38418322E-39
  0.585840285      -1.02937143E-39
  0.609840333      -4.98120546E-39
  0.633840322      -8.72690568E-39
  0.657840312      -1.14078545E-38
  0.681840301      -1.22148665E-38
  0.705840290      -1.05748694E-38
  0.729840338      -6.32438787E-39
  0.753840327       1.70715988E-40
  0.777840316       7.98609384E-39
  0.801840305       1.57248305E-38
  0.825840294       2.17234501E-38
  0.849840283       2.43560387E-38
  0.873840332       2.23909628E-38
  0.897840321       1.53325524E-38
  0.921840310       3.67163319E-39
  0.945840299      -1.10270264E-38
  0.969840288      -2.62519030E-38
  0.993840337      -3.88986301E-38
   1.01784027      -4.58187239E-38
   1.04184031      -4.44830118E-38
   1.06584036      -3.36380519E-38
   1.08984029      -1.38133010E-38
   1.11384034       1.24575910E-38
   1.13784027       4.08034459E-38
   1.16184032       6.56065632E-38
   1.18584037       8.09708424E-38
   1.20984030       8.19313204E-38
   1.23384035       6.56896042E-38
   1.25784028       3.26163176E-38
   1.28184032      -1.32367578E-38
   1.30584025      -6.43173238E-38
   1.32984030      -1.10535163E-37
   1.35384035      -1.40947913E-37
   1.37784028      -1.45945594E-37
   1.40184033      -1.19561969E-37
   1.42584026      -6.14459063E-38
   1.44984031       2.19887005E-38
   1.47384036       1.17629780E-37
   1.49784029       2.07162719E-37
   1.52184033       2.69944455E-37
   1.54584026       2.86907901E-37
   1.56984031       2.44869194E-37
   1.59384036       1.40413581E-37
   1.61784029      -1.75244298E-38
   1.64184034      -2.07158055E-37
   1.66584027      -3.95901434E-37
   1.68984032      -5.45012819E-37
   1.71384037      -6.16335906E-37
   1.73784029      -5.80130345E-37
   1.76184034      -4.22583592E-37
   1.78584027      -1.51421308E-37
   1.80984032       2.01847963E-37
   1.83384037       5.84080527E-37
   1.85784030       9.27342374E-37
   1.88184035       1.15985236E-36
   1.90584028       1.21949512E-36
   1.92984033       1.06760298E-36
   1.95384026       7.00276195E-37
   1.97784030       1.54571079E-37
   2.00184035      -4.92511883E-37
   2.02584028      -1.13317505E-36
   2.04984021      -1.64554698E-36
   2.07384038      -1.91579822E-36
   2.09784031      -1.86202657E-36
   2.12184024      -1.45535594E-36
   2.14584041      -7.33538402E-37
   2.16984034       1.96880461E-37
   2.19384027       1.17206738E-36
   2.21784019       1.99589689E-36
   2.24184036       2.47547799E-36
   2.26584029       2.46164384E-36
   2.28984022       1.88692851E-36
   2.31384039       7.92864716E-37
   2.33784032      -6.60719445E-37
   2.36184025      -2.20926303E-36
   2.38584042      -3.52090979E-36
   2.40984035      -4.25417425E-36
   2.43384027      -4.12750333E-36
   2.45784020      -2.98862892E-36
   2.48184037      -8.69656230E-37
   2.50584030       1.98564055E-36
   2.52984023       5.13251118E-36
   2.55384040       7.97823527E-36
   2.57784033       9.87406071E-36
   2.60184026       1.02344505E-35
   2.62584043       8.66468265E-36
   2.64984035       5.07313522E-36
   2.67384028      -2.56304081E-37
   2.69784021      -6.65247940E-36
   2.72184038      -1.31181826E-35
   2.74584031      -1.84645266E-35
   2.76984024      -2.15045513E-35
   2.79384041      -2.12785227E-35
   2.81784034      -1.72729553E-35
   2.84184027      -9.59060041E-36
   2.86584020       9.68652743E-37
   2.88984036       1.29452822E-35
   2.91384029       2.43874670E-35
   2.93784022       3.31367897E-35
   2.96184039       3.71968915E-35
   2.98584032       3.51286127E-35
   3.00984025       2.64018011E-35
   3.03384042       1.16317225E-35
   3.05784035      -7.36111150E-36
   3.08184028      -2.77048866E-35
   3.10584021      -4.58470405E-35
   3.12984037      -5.81045193E-35
   3.15384030      -6.13182107E-35
   3.17784023      -5.35061036E-35
   3.20184040      -3.43950881E-35
   3.22584033      -5.71687909E-36
   3.24984026       2.88189631E-35
   3.27384043       6.39145379E-35
   3.29784036       9.34142574E-35
   3.32184029       1.11289836E-34
   3.34584022       1.12734420E-34
   3.36984038       9.51815512E-35
   3.39384031       5.90537195E-35
   3.41784024       8.06897807E-36
   3.44184041      -5.10074607E-35
   3.46584034      -1.09193117E-34
   3.48984027      -1.56622936E-34
   3.51384020      -1.84209791E-34
   3.53784037      -1.85368606E-34
   3.56184030      -1.57496108E-34
   3.58584023      -1.02903051E-34
   3.60984039      -2.89566618E-35
   3.63384032       5.26953971E-35
   3.65784025       1.27795751E-34
   3.68184042       1.81850847E-34
   3.70584035       2.02859652E-34
   3.72984028       1.83937166E-34
   3.75384021       1.25328499E-34
   3.77784038       3.53515031E-35
   3.80184031      -7.00606285E-35
   3.82584023      -1.69334897E-34
   3.84984040      -2.38607629E-34
   3.87384033      -2.56030476E-34
   3.89784026      -2.06380372E-34
   3.92184043      -8.51700758E-35
   3.94584036       9.85730073E-35
   3.96984029       3.21574227E-34
   3.99384022       5.48079476E-34
   4.01784039       7.34197930E-34
   4.04184008       8.34447624E-34
   4.06584024       8.09686662E-34
   4.08984041       6.35247616E-34
   4.11384010       3.07882863E-34
   4.13784027      -1.49874416E-34
   4.16184044      -6.89083513E-34
   4.18584013      -1.23818273E-33
   4.20984030      -1.71121268E-33
   4.23384047      -2.01975037E-33
   4.25784016      -2.08709646E-33
   4.28184032      -1.86267494E-33
   4.30584049      -1.33428160E-33
   4.32984018      -5.35854243E-34
   4.35384035       4.51149130E-34
   4.37784052       1.50387301E-33
   4.40184021       2.47171950E-33
   4.42584038       3.19633885E-33
   4.44984055       3.53556926E-33
   4.47384024       3.38799549E-33
   4.49784040       2.71426862E-33
   4.52184010       1.55137593E-33
   4.54584026       1.67013698E-35
   4.56984043      -1.70001664E-33
   4.59384012      -3.35703113E-33
   4.61784029      -4.69148722E-33
   4.64184046      -5.45725971E-33
   4.66584015      -5.46458487E-33
   4.68984032      -4.61549518E-33
   4.71384048      -2.92906560E-33
   4.73784018      -5.51442537E-34
   4.76184034       2.25249513E-33
   4.78584051       5.12643335E-33
   4.80984020       7.66652346E-33
   4.83384037       9.47668411E-33
   4.85784054       1.02277831E-32
   4.88184023       9.71185351E-33
   4.90584040       7.88245149E-33
   4.92984009       4.87364329E-33
   4.95384026       9.92861742E-34
   4.97784042      -3.31338099E-33
   5.00184011      -7.51762874E-33
   5.02584028      -1.10860255E-32
   5.04984045      -1.35585001E-32
   5.07384014      -1.46219566E-32
   5.09784031      -1.41639120E-32
   5.12184048      -1.22961499E-32
   5.14584017      -9.34213042E-33
   5.16984034      -5.78741089E-33
   5.19384050      -2.19866318E-33
   5.21784019       8.77218353E-34
   5.24184036       3.01777630E-33
   5.26584053       4.01495863E-33
   5.28984022       3.93250211E-33
   5.31384039       3.11658487E-33
   5.33784008       2.15221114E-33
   5.36184025       1.76649416E-33
   5.38584042       2.68960950E-33
   5.40984011       5.49306269E-33
   5.43384027       1.04316219E-32
   5.45784044       1.73182938E-32
   5.48184013       2.54601115E-32
   5.50584030       3.36760059E-32
   5.52984047       4.04070394E-32
   5.55384016       4.39150466E-32
   5.57784033       4.25502741E-32
   5.60184050       3.50541173E-32
   5.62584019       2.08523206E-32
   5.64984035       2.88927833E-34
   5.67384052      -2.52464301E-32
   5.69784021      -5.33349235E-32
   5.72184038      -8.07082431E-32
   5.74584007      -1.03588100E-31
   5.76984024      -1.18156660E-31
   5.79384041      -1.21104788E-31
   5.81784010      -1.10185868E-31
   5.84184027      -8.46924989E-32
   5.86584044      -4.57749402E-32
   5.88984013       3.46683333E-33
   5.91384029       5.81592581E-32
   5.93784046       1.12106708E-31
   5.96184015       1.58484980E-31
   5.98584032       1.90703893E-31
   6.00984049       2.03332193E-31
   6.03384018       1.92957727E-31
   6.05784035       1.58851111E-31
   6.08184052       1.03316197E-31
   6.10584021       3.16454070E-32
   6.12984037      -4.83525877E-32
   6.15384054      -1.27224529E-31
   6.17784023      -1.95053763E-31
   6.20184040      -2.42805834E-31
   6.22584009      -2.63654896E-31
   6.24984026      -2.54092861E-31
   6.27384043      -2.14636758E-31
   6.29784012      -1.49993220E-31
   6.32184029      -6.86077043E-32
   6.34584045       1.83865860E-32
   6.36984015       9.87123379E-32
   6.39384031       1.60790018E-31
   6.41784048       1.95618658E-31
   6.44184017       1.98404756E-31
   6.46584034       1.69658218E-31
   6.48984051       1.15528796E-31
   6.51384020       4.72518725E-32
   6.53784037      -2.03016691E-32
   6.56184053      -7.08366590E-32
   6.58584023      -8.93363481E-32
   6.60984039      -6.48798649E-32
   6.63384008       6.86336107E-33
   6.65784025       1.21899775E-31
   6.68184042       2.67307839E-31
   6.70584011       4.22000779E-31
   6.72984028       5.58908490E-31
   6.75384045       6.48416931E-31
   6.77784014       6.62691523E-31
   6.80184031       5.80330323E-31
   6.82584047       3.90677946E-31
   6.84984016       9.71031391E-32
   6.87384033      -2.81379305E-31
   6.89784050      -7.10585301E-31
   6.92184019      -1.14391380E-30
   6.94584036      -1.52723273E-30
   6.96984053      -1.80542184E-30
   6.99384022      -1.92980155E-30
   7.01784039      -1.86546364E-30
   7.04184008      -1.59743100E-30
   7.06584024      -1.13464489E-30
   7.08984041      -5.10997457E-31
   7.11384010       2.17010316E-31
   7.13784027       9.75942900E-31
   7.16184044       1.68389603E-30
   7.18584013       2.26075211E-30
   7.20984030       2.63886595E-30
   7.23384047       2.77264436E-30
   7.25784016       2.64552376E-30
   7.28184032       2.27312038E-30
   7.30584049       1.70182035E-30
   7.32984018       1.00272649E-30
   7.35384035       2.61593855E-31
   7.37784052      -4.33918223E-31
   7.40184021      -1.00781619E-30
   7.42584038      -1.40800760E-30
   7.44984055      -1.61507131E-30
   7.47384024      -1.64581378E-30
   7.49784040      -1.55056197E-30
   7.52184010      -1.40409443E-30
   7.54584026      -1.29118350E-30
   7.56984043      -1.28874486E-30
   7.59384012      -1.44740162E-30
   7.61784029      -1.77571079E-30
   7.64184046      -2.23024418E-30
   7.66584015      -2.71412430E-30
   7.68984032      -3.08551657E-30
   7.71384048      -3.17608869E-30
   7.73784018      -2.81776397E-30
   7.76184034      -1.87446398E-30
   7.78584051      -2.74243161E-31
   7.80984020       1.96350420E-30
   7.83384037       4.71103078E-30
   7.85784054       7.72976723E-30
   7.88184023       1.06850164E-29
   7.90584040       1.31780538E-29
   7.92984009       1.47931687E-29
   7.95384026       1.51544717E-29
   7.97784042       1.39851343E-29
   8.00184059       1.11604150E-29
   8.02584076       6.74566442E-30
   8.04983997       1.01179943E-30
   8.07384014      -5.57675133E-30
   8.09784031      -1.24029813E-29
   8.12184048      -1.87642331E-29
   8.14584064      -2.39579652E-29
   8.16983986      -2.73755655E-29
   8.19384003      -2.85910650E-29
   8.21784019      -2.74310533E-29
   8.24184036      -2.40135192E-29
   8.26584053      -1.87469976E-29
   8.28984070      -1.22864678E-29
   8.31383991      -5.44891096E-30
   8.33784008       9.02168310E-31
   8.36184025       5.98824056E-30
   8.38584042       9.24430876E-30
   8.40984058       1.04242305E-29
   8.43384075       9.66412537E-30
   8.45783997       7.48990018E-30
   8.48184013       4.76222139E-30
   8.50584030       2.56129875E-30
   8.52984047       2.02338896E-30
   8.55384064       4.14948866E-30
   8.57783985       9.61293927E-30
   8.60184002       1.85954284E-29
   8.62584019       3.06793629E-29
   8.64984035       4.48186829E-29
   8.67384052       5.94005244E-29
   8.69784069       7.23977228E-29
   8.72183990       8.15988230E-29
   8.74584007       8.48897197E-29
   8.76984024       8.05516347E-29
   8.79384041       6.75350506E-29
   8.81784058       4.56699409E-29
   8.84184074       1.57789755E-29
   8.86583996      -2.03276113E-29
   8.88984013      -5.99815113E-29
   8.91384029      -9.98987566E-29
   8.93784046      -1.36507495E-28
   8.96184063      -1.66320469E-28
   8.98583984      -1.86304328E-28
   9.00984001      -1.94197282E-28
   9.03384018      -1.88733912E-28
   9.05784035      -1.69748745E-28
   9.08184052      -1.38148977E-28
   9.10584068      -9.57662526E-29
   9.12983990      -4.51162661E-29
   9.15384007       1.08904741E-29
   9.17784023       6.92363810E-29
   9.20184040       1.27033882E-28
   9.22584057       1.81672803E-28
   9.24984074       2.30857009E-28
   9.27383995       2.72531798E-28
   9.29784012       3.04728147E-28
   9.32184029       3.25370673E-28
   9.34584045       3.32110826E-28
   9.36984062       3.22250715E-28
   9.39383984       2.92814657E-28
   9.41784000       2.40806075E-28
   9.44184017       1.63655861E-28
   9.46584034       5.98332929E-29
   9.48984051      -7.04480257E-29
   9.51384068      -2.24528043E-28
   9.53783989      -3.96721707E-28
   9.56184006      -5.77989295E-28
   9.58584023      -7.55966696E-28
   9.60984039      -9.15434466E-28
   9.63384056      -1.03925366E-27
   9.65784073      -1.10973817E-27
   9.68183994      -1.11036766E-27
   9.70584011      -1.02768402E-27
   9.72984028      -8.53174158E-28
   9.75384045      -5.84910172E-28
   9.77784061      -2.28727942E-28
   9.80184078       2.01247775E-28
   9.82584000       6.82863066E-28
   9.84984016       1.18702891E-27
   9.87384033       1.67960774E-27
   9.89784050       2.12395483E-27
   9.92184067       2.48389034E-27
   9.94583988       2.72681674E-27
   9.96984005       2.82666542E-27
   9.99384022       2.76635743E-27
   10.0178404       2.53951197E-27
   10.0418406       2.15120366E-27
   10.0658407       1.61768428E-27
   10.0898399       9.65084940E-28
   10.1138401       2.27245963E-28
   10.1378403      -5.57095073E-28
   10.1618404      -1.34744203E-27
   10.1858406      -2.10466337E-27
   10.2098408      -2.79376476E-27
   10.2338400      -3.38602250E-27
   10.2578402      -3.86028121E-27
   10.2818403      -4.20332246E-27
   10.3058405      -4.40933649E-27
   10.3298407      -4.47863569E-27
   10.3538399      -4.41585268E-27
   10.3778400      -4.22791890E-27
   10.4018402      -3.92214401E-27
   10.4258404      -3.50468675E-27
   10.4498405      -2.97965745E-27
   10.4738407      -2.34898646E-27
   10.4978399      -1.61309045E-27
   10.5218401      -7.72251493E-28
   10.5458403       1.71474787E-28
   10.5698404       1.21208391E-27
   10.5938406       2.33747806E-27
   10.6178408       3.52765578E-27
   10.6418400       4.75350056E-27
   10.6658401       5.97636708E-27
   10.6898403       7.14858049E-27
   10.7138405       8.21487006E-27
   10.7378407       9.11466299E-27
   10.7618399       9.78509923E-27
   10.7858400       1.01645798E-26
   10.8098402       1.01966219E-26
   10.8338404       9.83379907E-27
   10.8578405       9.04156778E-27
   10.8818407       7.80177195E-27
   10.9058399       6.11566420E-27
   10.9298401       4.00628827E-27
   10.9538403       1.52004945E-27
   10.9778404      -1.27268455E-27
   11.0018406      -4.27813213E-27
   11.0258408      -7.38097475E-27
   11.0498400      -1.04477193E-26
   11.0738401      -1.33316676E-26
   11.0978403      -1.58794834E-26
   11.1218405      -1.79392778E-26
   11.1458406      -1.93698894E-26
   11.1698399      -2.00508998E-26
   11.1938400      -1.98927147E-26
   11.2178402      -1.88458855E-26
   11.2418404      -1.69087251E-26
   11.2658405      -1.41323137E-26
   11.2898407      -1.06220229E-26
   11.3138399      -6.53493915E-27
   11.3378401      -2.07286338E-27
   11.3618402       2.52902065E-27
   11.3858404       7.01726827E-27
   11.4098406       1.11381220E-26
   11.4338408       1.46568831E-26
   11.4578400       1.73770604E-26
   11.4818401       1.91574917E-26
   11.5058403       1.99257097E-26
   11.5298405       1.96860378E-26
   11.5538406       1.85213231E-26
   11.5778399       1.65878374E-26
   11.6018400       1.41034324E-26
   11.6258402       1.13297967E-26
   11.6498404       8.55021144E-27
   11.6738405       6.04474452E-27
   11.6978407       4.06507150E-27
   11.7218399       2.81124219E-27
   11.7458401       2.41250748E-27
   11.7698402       2.91397553E-27
   11.7938404       4.27026894E-27
   11.8178406       6.34669952E-27
   11.8418407       8.92773608E-27
   11.8658400       1.17318061E-26
   11.8898401       1.44310609E-26
   11.9138403       1.66741191E-26
   11.9378405       1.81098336E-26
   11.9618406       1.84101307E-26
   11.9858398       1.72902225E-26
   12.0098400       1.45250632E-26
   12.0338402       9.96143738E-27
   12.0578403       3.52568247E-27
   12.0818405      -4.77234000E-27
   12.1058407      -1.48380345E-26
   12.1298399      -2.64923959E-26
   12.1538401      -3.94726614E-26
   12.1778402      -5.34323533E-26
   12.2018404      -6.79402818E-26
   12.2258406      -8.24786494E-26
   12.2498407      -9.64413333E-26
   12.2738400      -1.09133766E-25
   12.2978401      -1.19776856E-25
   12.3218403      -1.27517233E-25
   12.3458405      -1.31446549E-25
   12.3698406      -1.30631631E-25
   12.3938398      -1.24157092E-25
   12.4178400      -1.11180269E-25
   12.4418402      -9.09973118E-26
   12.4658403      -6.31175252E-26
   12.4898405      -2.73415584E-26
   12.5138407       1.61623317E-26
   12.5378399       6.67907882E-26
   12.5618401       1.23453736E-25
   12.5858402       1.84545738E-25
   12.6098404       2.47946452E-25
   12.6338406       3.11054930E-25
   12.6578407       3.70860102E-25
   12.6818399       4.24047496E-25
   12.7058401       4.67139220E-25
   12.7298403       4.96661846E-25
   12.7538404       5.09333812E-25
   12.7778406       5.02262463E-25
   12.8018408       4.73138803E-25
   12.8258400       4.20418736E-25
   12.8498402       3.43478370E-25
   12.8738403       2.42733856E-25
   12.8978405       1.19716422E-25
   12.9218407      -2.29030757E-26
   12.9458399      -1.81342913E-25
   12.9698400      -3.50793428E-25
   12.9938402      -5.25551067E-25
   13.0178404      -6.99198432E-25
   13.0418406      -8.64823181E-25