  -7.50215960       0.00000000    
  -7.47815990       0.00000000    
  -7.45415974       0.00000000    
  -7.43015957       0.00000000    
  -7.40615988       0.00000000    
  -7.38215971       0.00000000    
  -7.35815954       0.00000000    
  -7.33415985       0.00000000    
  -7.31015968       0.00000000    
  -7.28615952       0.00000000    
  -7.26215982       0.00000000    
  -7.23815966       0.00000000    
  -7.21415949       0.00000000    
  -7.19015980       0.00000000    
  -7.16615963       0.00000000    
  -7.14215946       0.00000000    
  -7.11815977       0.00000000    
  -7.09415960       0.00000000    
  -7.07015991       0.00000000    
  -7.04615974       0.00000000    
  -7.02215958       0.00000000    
  -6.99815989       0.00000000    
  -6.97415972       0.00000000    
  -6.95015955       0.00000000    
  -6.92615986       0.00000000    
  -6.90215969       0.00000000    
  -6.87815952       0.00000000    
  -6.85415983       0.00000000    
  -6.83015966       0.00000000    
  -6.80615950       0.00000000    
  -6.78215981       0.00000000    
  -6.75815964       0.00000000    
  -6.73415947       0.00000000    
  -6.71015978       0.00000000    
  -6.68615961       0.00000000    
  -6.66215992       0.00000000    
  -6.63815975       0.00000000    
  -6.61415958       0.00000000    
  -6.59015989       0.00000000    
  -6.56615973       0.00000000    
  -6.54215956       0.00000000    
  -6.51815987       0.00000000    
  -6.49415970       0.00000000    
  -6.47015953       0.00000000    
  -6.44615984       0.00000000    
  -6.42215967       0.00000000    
  -6.39815950       0.00000000    
  -6.37415981       0.00000000    
  -6.35015965       0.00000000    
  -6.32615948       0.00000000    
  -6.30215979       0.00000000    
  -6.27815962       0.00000000    
  -6.25415993       0.00000000    
  -6.23015976       0.00000000    
  -6.20615959       0.00000000    
  -6.18215990       0.00000000    
  -6.15815973       0.00000000    
  -6.13415956       0.00000000    
  -6.11015987       0.00000000    
  -6.08615971       0.00000000    
  -6.06215954       0.00000000    
  -6.03815985       0.00000000    
  -6.01415968       0.00000000    
  -5.99015951       0.00000000    
  -5.96615982       0.00000000    
  -5.94215965       0.00000000    
  -5.91815948       0.00000000    
  -5.89415979       0.00000000    
  -5.87015963       0.00000000    
  -5.84615946       0.00000000    
  -5.82215977       0.00000000    
  -5.79815960       0.00000000    
  -5.77415991       0.00000000    
  -5.75015974       0.00000000    
  -5.72615957       0.00000000    
  -5.70215988       0.00000000    
  -5.67815971       0.00000000    
  -5.65415955       0.00000000    
  -5.63015985       0.00000000    
  -5.60615969       0.00000000    
  -5.58215952       0.00000000    
  -5.55815983       0.00000000    
  -5.53415966       0.00000000    
  -5.51015949       0.00000000    
  -5.48615980       0.00000000    
  -5.46215963       0.00000000    
  -5.43815947       0.00000000    
  -5.41415977       0.00000000    
  -5.39015961       0.00000000    
  -5.36615992       0.00000000    
  -5.34215975       0.00000000    
  -5.31815958       0.00000000    
  -5.29415989       0.00000000    
  -5.27015972       0.00000000    
  -5.24615955       0.00000000    
  -5.22215986       0.00000000    
  -5.19815969       0.00000000    
  -5.17415953       0.00000000    
  -5.15015984       0.00000000    
  -5.12615967       0.00000000    
  -5.10215950       0.00000000    
  -5.07815981       0.00000000    
  -5.05415964       0.00000000    
  -5.03015947       0.00000000    
  -5.00615978       0.00000000    
  -4.98215961       0.00000000    
  -4.95815992       0.00000000    
  -4.93415976       0.00000000    
  -4.91015959       0.00000000    
  -4.88615990       0.00000000    
  -4.86215973       0.00000000    
  -4.83815956       0.00000000    
  -4.81415987       0.00000000    
  -4.79015970       0.00000000    
  -4.76615953       0.00000000    
  -4.74215984       0.00000000    
  -4.71815968       0.00000000    
  -4.69415951       0.00000000    
  -4.67015982       0.00000000    
  -4.64615965       0.00000000    
  -4.62215948       0.00000000    
  -4.59815979       0.00000000    
  -4.57415962       0.00000000    
  -4.55015945       0.00000000    
  -4.52615976       0.00000000    
  -4.50215960       0.00000000    
  -4.47815990       0.00000000    
  -4.45415974       0.00000000    
  -4.43015957       0.00000000    
  -4.40615988       0.00000000    
  -4.38215971       0.00000000    
  -4.35815954       0.00000000    
  -4.33415985       0.00000000    
  -4.31015968       0.00000000    
  -4.28615952       0.00000000    
  -4.26215982       0.00000000    
  -4.23815966       0.00000000    
  -4.21415949       0.00000000    
  -4.19015980       0.00000000    
  -4.16615963       0.00000000    
  -4.14215946       0.00000000    
  -4.11815977       0.00000000    
  -4.09415960       0.00000000    
  -4.07015991       0.00000000    
  -4.04615974       0.00000000    
  -4.02215958       0.00000000    
  -3.99815965       0.00000000    
  -3.97415972       0.00000000    
  -3.95015979       0.00000000    
  -3.92615962       0.00000000    
  -3.90215969       0.00000000    
  -3.87815976       0.00000000    
  -3.85415959       0.00000000    
  -3.83015966       0.00000000    
  -3.80615973       0.00000000    
  -3.78215981       0.00000000    
  -3.75815964       0.00000000    
  -3.73415971       0.00000000    
  -3.71015978       0.00000000    
  -3.68615961       0.00000000    
  -3.66215968       0.00000000    
  -3.63815975       0.00000000    
  -3.61415958       0.00000000    
  -3.59015965       0.00000000    
  -3.56615973       0.00000000    
  -3.54215980       0.00000000    
  -3.51815963       0.00000000    
  -3.49415970       0.00000000    
  -3.47015977       0.00000000    
  -3.44615960       0.00000000    
  -3.42215967       0.00000000    
  -3.39815974       0.00000000    
  -3.37415957       0.00000000    
  -3.35015965       0.00000000    
  -3.32615972       0.00000000    
  -3.30215979       0.00000000    
  -3.27815962       0.00000000    
  -3.25415969       0.00000000    
  -3.23015976       0.00000000    
  -3.20615959       0.00000000    
  -3.18215966       0.00000000    
  -3.15815973       0.00000000    
  -3.13415980       0.00000000    
  -3.11015964       0.00000000    
  -3.08615971       0.00000000    
  -3.06215978       0.00000000    
  -3.03815961       0.00000000    
  -3.01415968       0.00000000    
  -2.99015975       0.00000000    
  -2.96615958       0.00000000    
  -2.94215965       0.00000000    
  -2.91815972       0.00000000    
  -2.89415979       0.00000000    
  -2.87015963       0.00000000    
  -2.84615970       0.00000000    
  -2.82215977       0.00000000    
  -2.79815960       0.00000000    
  -2.77415967      -0.00000000    
  -2.75015974       0.00000000    
  -2.72615957       0.00000000    
  -2.70215964       0.00000000    
  -2.67815971       0.00000000    
  -2.65415978       0.00000000    
  -2.63015962       0.00000000    
  -2.60615969      -0.00000000    
  -2.58215976      -0.00000000    
  -2.55815959      -0.00000000    
  -2.53415966      -0.00000000    
  -2.51015973      -0.00000000    
  -2.48615980       0.00000000    
  -2.46215963       0.00000000    
  -2.43815970       0.00000000    
  -2.41415977       0.00000000    
  -2.39015961       0.00000000    
  -2.36615968       0.00000000    
  -2.34215975      -0.00000000    
  -2.31815958      -0.00000000    
  -2.29415965      -0.00000000    
  -2.27015972      -2.80259693E-45
  -2.24615979      -8.40779079E-45
  -2.22215962      -1.54142831E-44
  -2.19815969      -2.52233724E-44
  -2.17415977      -3.50324616E-44
  -2.15015960      -4.06376555E-44
  -2.12615967      -2.10194770E-44
  -2.10215974       2.52233724E-44
  -2.07815957       7.28675201E-44
  -2.05415964       1.40129846E-43
  -2.03015971       1.97583083E-43
  -2.00615978       1.84971397E-43
  -1.98215973       1.17709071E-43
  -1.95815969       7.70714155E-44
  -1.93415964       5.60519386E-44
  -1.91015971      -8.40779079E-45
  -1.88615966      -9.38869971E-44
  -1.86215973      -1.66754517E-43
  -1.83815968      -2.43825933E-43
  -1.81415963      -2.91470081E-43
  -1.79015970      -3.02680468E-43
  -1.76615965      -2.21405157E-43
  -1.74215972      -7.00649232E-45
  -1.71815968       2.04589576E-43
  -1.69415975       3.37712930E-43
  -1.67015970       4.45612912E-43
  -1.64615965       5.38098610E-43
  -1.62215972       5.36697312E-43
  -1.59815967       6.05360937E-43
  -1.57415974       6.78228457E-43
  -1.55015969       4.55422001E-43
  -1.52615964       1.93379188E-43
  -1.50215971      -1.13505176E-43
  -1.47815967      -5.35296013E-43
  -1.45415974      -8.50588168E-43
  -1.43015969      -9.86514119E-43
  -1.40615964      -8.36575183E-43
  -1.38215971      -6.45998592E-43
  -1.35815966      -3.69942795E-43
  -1.33415973       4.20389539E-45
  -1.31015968       2.38220739E-43
  -1.28615963       5.38098610E-43
  -1.26215971       8.19759602E-43
  -1.23815966       8.21160900E-43
  -1.21415973       5.49308998E-43
  -1.19015968       5.32493416E-44
  -1.16615963      -5.77334967E-43
  -1.14215970      -1.17709071E-42
  -1.11815965      -1.63531531E-42
  -1.09415972      -1.90576591E-42
  -1.07015967      -1.75162308E-42
  -1.04615974      -9.62692045E-43
  -1.02215970       1.80767502E-43
 -0.998159707       1.41951534E-42
 -0.974159718       2.74794629E-42
 -0.950159669       3.77930196E-42
 -0.926159680       4.08338373E-42
 -0.902159691       3.56910719E-42
 -0.878159702       2.32755675E-42
 -0.854159713       4.14784345E-43
 -0.830159664      -1.91977890E-42
 -0.806159675      -4.06516685E-42
 -0.782159686      -5.44824843E-42
 -0.758159697      -5.89666394E-42
 -0.734159708      -5.01104331E-42
 -0.710159659      -2.77597226E-42
 -0.686159670       2.71851902E-43
 -0.662159681       3.66859938E-42
 -0.638159692       6.63094433E-42
 -0.614159703       8.23543107E-42
 -0.590159714       7.50115068E-42
 -0.566159666       4.67333038E-42
 -0.542159677       1.40129846E-44
 -0.518159688      -5.70468605E-42
 -0.494159698      -1.09805748E-41
 -0.470159680      -1.45538859E-41
 -0.446159691      -1.48873949E-41
 -0.422159702      -1.09497462E-41
 -0.398159683      -2.90208912E-42
 -0.374159694       8.00421683E-42
 -0.350159675       1.92468344E-41
 -0.326159686       2.77373018E-41
 -0.302159697       3.02750533E-41
 -0.278159678       2.42592790E-41
 -0.254159689       9.33685167E-42
 -0.230159685      -1.29185705E-41
 -0.206159696      -3.82176130E-41
 -0.182159692      -6.05893430E-41
 -0.158159688      -7.34532629E-41
 -0.134159684      -7.04026361E-41
 -0.110159688      -4.76721738E-41
  -8.61596912E-02  -5.60239126E-42
  -6.21596873E-02   5.07578330E-41
  -3.81596908E-02   1.11670876E-40
  -1.41596887E-02   1.63305922E-40
   9.84031055E-03   1.90932521E-40
   3.38403098E-02   1.82404219E-40
   5.78403100E-02   1.31240009E-40
   8.18403140E-02   3.95082089E-41
  0.105840310      -8.11477928E-41
  0.129840314      -2.09753361E-40
  0.153840318      -3.19475030E-40
  0.177840307      -3.83522778E-40
  0.201840311      -3.80686550E-40
  0.225840315      -3.01780835E-40
  0.249840304      -1.54505767E-40
  0.273840308       3.66972042E-41
  0.297840297       2.33632888E-40
  0.321840316       3.91990825E-40
  0.345840305       4.72175925E-40
  0.369840324       4.50740263E-40
  0.393840313       3.30287449E-40
  0.417840302       1.43654112E-40
  0.441840321      -5.00838084E-41
  0.465840310      -1.76877497E-40
  0.489840299      -1.67371089E-40
  0.513840318       1.91039020E-41
  0.537840307       3.73696873E-40
  0.561840296       8.24260572E-40
  0.585840285       1.23580231E-39
  0.609840333       1.42851308E-39
  0.633840322       1.21570489E-39
  0.657840312       4.54390645E-40
  0.681840301      -9.00079227E-40
  0.705840290      -2.74625913E-39
  0.729840338      -4.81307627E-39
  0.753840327      -6.67138020E-39
  0.777840316      -7.78714168E-39
  0.801840305      -7.61700583E-39
  0.825840294      -5.73391573E-39
  0.849840283      -1.96060713E-39
  0.873840332       3.51794578E-39
  0.897840321       1.00948813E-38
  0.921840310       1.67597651E-38
  0.945840299       2.22111622E-38
  0.969840288       2.50604742E-38
  0.993840337       2.41022075E-38
   1.01784027       1.86055232E-38
   1.04184031       8.56794098E-39
   1.06584036      -5.13380406E-39
   1.08984029      -2.07484168E-38
   1.11384034      -3.58399879E-38
   1.13784027      -4.76585139E-38
   1.16184032      -5.36427085E-38
   1.18584037      -5.19679607E-38
   1.20984030      -4.20259583E-38
   1.23384035      -2.47176886E-38
   1.25784028      -2.45654207E-39
   1.28184032       2.11647706E-38
   1.30584025       4.20263086E-38
   1.32984030       5.63569732E-38
   1.35384035       6.16601704E-38
   1.37784028       5.74737128E-38
   1.40184033       4.57475155E-38
   1.42584026       3.06632887E-38
   1.44984031       1.78239573E-38
   1.47384036       1.28857844E-38
   1.49784029       1.98509622E-38
   1.52184033       3.93819379E-38
   1.54584026       6.75770803E-38
   1.56984031       9.56415125E-38
   1.59384036       1.10778451E-37
   1.61784029       9.84098729E-38
   1.64184034       4.55455156E-38
   1.66584027      -5.52014457E-38
   1.68984032      -2.01734940E-37
   1.71384037      -3.79680900E-37
   1.73784029      -5.61623474E-37
   1.76184034      -7.09097963E-37
   1.78584027      -7.77629530E-37
   1.80984032      -7.24512964E-37
   1.83384037      -5.18355772E-37
   1.85784030      -1.48798918E-37
   1.88184035       3.65580474E-37
   1.90584028       9.73254741E-37
   1.92984033       1.59134377E-36
   1.95384026       2.11377905E-36
   1.97784030       2.42584450E-36
   2.00184035       2.42358610E-36
   2.02584028       2.03529791E-36
   2.04984021       1.24131735E-36
   2.07384038       8.79868187E-38
   2.09784031      -1.30800140E-36
   2.12184024      -2.76746465E-36
   2.14584041      -4.06945361E-36
   2.16984034      -4.98311025E-36
   2.19384027      -5.30647523E-36
   2.21784019      -4.90602404E-36
   2.24184036      -3.74957623E-36
   2.26584029      -1.92536849E-36
   2.28984022       3.58321658E-37
   2.31384039       2.79565008E-36
   2.33784032       5.02648387E-36
   2.36184025       6.69492246E-36
   2.38584042       7.51368327E-36
   2.40984035       7.32255207E-36
   2.43384027       6.12862103E-36
   2.45784020       4.11804965E-36
   2.48184037       1.63347349E-36
   2.50584030      -8.82611223E-37
   2.52984023      -2.97108726E-36
   2.55384040      -4.25211154E-36
   2.57784033      -4.51506347E-36
   2.60184026      -3.78246912E-36
   2.62584043      -2.33039926E-36
   2.64984035      -6.54385801E-37
   2.67384028       6.20119188E-37
   2.69784021       8.72019380E-37
   2.72184038      -3.58505688E-37
   2.74584031      -3.22108877E-36
   2.76984024      -7.44845926E-36
   2.79384041      -1.23231168E-35
   2.81784034      -1.67384699E-35
   2.84184027      -1.93594750E-35
   2.86584020      -1.88678122E-35
   2.88984036      -1.42564190E-35
   2.91384029      -5.12165880E-36
   2.93784022       8.10745141E-36
   2.96184039       2.40616519E-35
   2.98584032       4.04903650E-35
   3.00984025       5.45068236E-35
   3.03384042       6.30059405E-35
   3.05784035       6.32055219E-35
   3.08184028       5.32293000E-35
   3.10584021       3.26286237E-35
   3.12984037       2.73451526E-36
   3.15384030      -3.32535786E-35
   3.17784023      -7.05017832E-35
   3.20184040      -1.03107155E-34
   3.22584033      -1.24943880E-34
   3.24984026      -1.30681062E-34
   3.27384043      -1.16816771E-34
   3.29784036      -8.25489014E-35
   3.32184029      -3.03083712E-35
   3.34584022       3.41821044E-35
   3.36984038       1.02394271E-34
   3.39384031       1.64009897E-34
   3.41784024       2.08356672E-34
   3.44184041       2.26071762E-34
   3.46584034       2.10741801E-34
   3.48984027       1.60248693E-34
   3.51384020       7.75747752E-35
   3.53784037      -2.91087873E-35
   3.56184030      -1.47141621E-34
   3.58584023      -2.60809113E-34
   3.60984039      -3.53337163E-34
   3.63384032      -4.09172640E-34
   3.65784025      -4.16219729E-34
   3.68184042      -3.67699615E-34
   3.70584035      -2.63356423E-34
   3.72984028      -1.09836011E-34
   3.75384021       7.98078701E-35
   3.77784038       2.87385502E-34
   3.80184031       4.91416332E-34
   3.82584023       6.69271566E-34
   3.84984040       7.99329730E-34
   3.87384033       8.62904505E-34
   3.89784026       8.45801981E-34
   3.92184043       7.39471997E-34
   3.94584036       5.41823504E-34
   3.96984029       2.57829717E-34
   3.99384022      -9.99563254E-35
   4.01784039      -5.10935921E-34
   4.04184008      -9.46144107E-34
   4.06584024      -1.36833622E-33
   4.08984041      -1.73288365E-33
   4.11384010      -1.98994075E-33
   4.13784027      -2.08828371E-33
   4.16184044      -1.98100810E-33
   4.18584013      -1.63290088E-33
   4.20984030      -1.02883481E-33
   4.23384047      -1.82035264E-34
   4.25784016       8.59344686E-34
   4.28184032       2.00911435E-33
   4.30584049       3.14508252E-33
   4.32984018       4.11744410E-33
   4.35384035       4.76388849E-33
   4.37784052       4.93065771E-33
   4.40184021       4.49748877E-33
   4.42584038       3.40318104E-33
   4.44984055       1.66762608E-33
   4.47384024      -5.94162574E-34
   4.49784040      -3.17007537E-33
   4.52184010      -5.76378198E-33
   4.54584026      -8.02326322E-33
   4.56984043      -9.58327280E-33
   4.59384012      -1.01173168E-32
   4.61784029      -9.39234974E-33
   4.64184046      -7.31774841E-33
   4.66584015      -3.97973163E-33
   4.68984032       3.46550314E-34
   4.71384048       5.21246631E-33
   4.73784018       1.00401963E-32
   4.76184034       1.41925015E-32
   4.78584051       1.70598525E-32
   4.80984020       1.81527478E-32
   4.83384037       1.71846959E-32
   4.85784054       1.41311113E-32
   4.88184023       9.25179588E-33
   4.90584040       3.06957464E-33
   4.92984009      -3.69545669E-33
   4.95384026      -1.02288756E-32
   4.97784042      -1.57473631E-32
   5.00184011      -1.96262550E-32
   5.02584028      -2.15062260E-32
   5.04984045      -2.13574202E-32
   5.07384014      -1.94849224E-32
   5.09784031      -1.64687831E-32
   5.12184048      -1.30436541E-32
   5.14584017      -9.93561621E-33
   5.16984034      -7.68458861E-33
   5.19384050      -6.48763120E-33
   5.21784019      -6.09950060E-33
   5.24184036      -5.82091652E-33
   5.26584053      -4.59226484E-33
   5.28984022      -1.19215698E-33
   5.31384039       5.48098633E-33
   5.33784008       1.60866813E-32
   5.36184025       3.05379238E-32
   5.38584042       4.77806363E-32
   5.40984011       6.57195205E-32
   5.43384027       8.13370268E-32
   5.45784044       9.10246519E-32
   5.48184013       9.11096930E-32
   5.50584030       7.85213358E-32
   5.52984047       5.15035092E-32
   5.55384016       1.02557577E-32
   5.57784033      -4.26265814E-32
   5.60184050      -1.02030500E-31
   5.62584019      -1.60606206E-31
   5.64984035      -2.09481251E-31
   5.67384052      -2.39370758E-31
   5.69784021      -2.41972879E-31
   5.72184038      -2.11472327E-31
   5.74584007      -1.45926057E-31
   5.76984024      -4.82863780E-32
   5.79384041       7.31644905E-32
   5.81784010       2.05137282E-31
   5.84184027       3.30489390E-31
   5.86584044       4.30163459E-31
   5.88984013       4.85732886E-31
   5.91384029       4.82253845E-31
   5.93784046       4.11030549E-31
   5.96184015       2.71855826E-31
   5.98584032       7.43073237E-32
   6.00984049      -1.62235512E-31
   6.03384018      -4.10037961E-31
   6.05784035      -6.35906568E-31
   6.08184052      -8.05298548E-31
   6.10584021      -8.87190820E-31
   6.12984037      -8.59078543E-31
   6.15384054      -7.11372835E-31
   6.17784023      -4.50461190E-31
   6.20184040      -9.98007047E-32
   6.22584009       3.01367975E-31
   6.24984026       7.01796082E-31
   6.27384043       1.04424213E-30
   6.29784012       1.27311220E-30
   6.32184029       1.34279419E-30
   6.34584045       1.22554013E-30
   6.36984015       9.17678441E-31
   6.39384031       4.43043492E-31
   6.41784048      -1.47212412E-31
   6.44184017      -7.78822513E-31
   6.46584034      -1.36247798E-30
   6.48984051      -1.80503853E-30
   6.51384020      -2.02260787E-30
   6.53784037      -1.95378728E-30
   6.56184053      -1.57120515E-30
   6.58584023      -8.89463379E-31
   6.60984039       3.20404319E-32
   6.63384008       1.09238041E-30
   6.65784025       2.15864416E-30
   6.68184042       3.08105345E-30
   6.70584011       3.71209192E-30
   6.72984028       3.92733152E-30
   6.75384045       3.64517939E-30
   6.77784014       2.84264815E-30
   6.80184031       1.56453258E-30
   6.82584047      -7.59156939E-32
   6.84984016      -1.90571069E-30
   6.87384033      -3.70987823E-30
   6.89784050      -5.25655006E-30
   6.92184019      -6.32653542E-30
   6.94584036      -6.74363166E-30
   6.96984053      -6.40152181E-30
   6.99384022      -5.28326256E-30
   7.01784039      -3.47010145E-30
   7.04184008      -1.13764371E-30
   7.06584024       1.46097293E-30
   7.08984041       4.02341172E-30
   7.11384010       6.23476072E-30
   7.13784027       7.80784789E-30
   7.16184044       8.52184955E-30
   7.18584013       8.25371647E-30
   7.20984030       6.99770696E-30
   7.23384047       4.86977819E-30
   7.25784016       2.09564932E-30
   7.28184032      -1.01629113E-30
   7.30584049      -4.11379614E-30
   7.32984018      -6.84592939E-30
   7.35384035      -8.90810157E-30
   7.37784052      -1.00802782E-29
   7.40184021      -1.02525135E-29
   7.42584038      -9.43382854E-30
   7.44984055      -7.74301251E-30
   7.47384024      -5.38290912E-30
   7.49784040      -2.60261201E-30
   7.52184010       3.45733765E-31
   7.54584026       3.24756326E-30
   7.56984043       5.95607941E-30
   7.59384012       8.40561441E-30
   7.61784029       1.06045863E-29
   7.64184046       1.26082381E-29
   7.66584015       1.44754414E-29
   7.68984032       1.62176346E-29
   7.71384048       1.77507321E-29
   7.73784018       1.88618883E-29
   7.76184034       1.92020045E-29
   7.78584051       1.83116622E-29
   7.80984020       1.56829769E-29
   7.83384037       1.08534571E-29
   7.85784054       3.52101334E-30
   7.88184023      -6.33682786E-30
   7.90584040      -1.83606771E-29
   7.92984009      -3.17465086E-29
   7.95384026      -4.52425770E-29
   7.97784042      -5.72200828E-29
   8.00184059      -6.58222188E-29
   8.02584076      -6.91842726E-29
   8.04983997      -6.57046047E-29
   8.07384014      -5.43346486E-29
   8.09784031      -3.48472739E-29
   8.12184048      -8.03882030E-30
   8.14584064       2.41775046E-29
   8.16983986       5.88200551E-29
   8.19384003       9.20468907E-29
   8.21784019       1.19520901E-28
   8.24184036       1.36905862E-28
   8.26584053       1.40444577E-28
   8.28984070       1.27551090E-28
   8.31383991       9.73365897E-29
   8.33784008       5.09865096E-29
   8.36184025      -8.08476652E-30
   8.38584042      -7.43545639E-29
   8.40984058      -1.40609918E-28
   8.43384075      -1.98646999E-28
   8.45783997      -2.40195314E-28
   8.48184013      -2.57972298E-28
   8.50584030      -2.46743933E-28
   8.52984047      -2.04251515E-28
   8.55384064      -1.31865197E-28
   8.57783985      -3.48458776E-29
   8.60184002       7.78648602E-29
   8.62584019       1.94352596E-28
   8.64984035       3.00898676E-28
   8.67384052       3.83506987E-28
   8.69784069       4.29628796E-28
   8.72183990       4.29882297E-28
   8.74584007       3.79544290E-28
   8.76984024       2.79599937E-28
   8.79384041       1.37172747E-28
   8.81784058      -3.47764749E-29
   8.84184074      -2.18509608E-28
   8.86583996      -3.93260330E-28
   8.88984013      -5.37508222E-28
   8.91384029      -6.31531544E-28
   8.93784046      -6.59936747E-28
   8.96184063      -6.13844862E-28
   8.98583984      -4.92432987E-28
   9.00984001      -3.03594376E-28
   9.03384018      -6.35763979E-29
   9.05784035       2.04420732E-28
   9.08184052       4.72568223E-28
   9.10584068       7.11415458E-28
   9.12983990       8.93237353E-28
   9.15384007       9.95319729E-28
   9.17784023       1.00277038E-27
   9.20184040       9.10487715E-28
   9.22584057       7.24013640E-28
   9.24984074       4.59134043E-28
   9.27383995       1.40250528E-28
   9.29784012      -2.02292941E-28
   9.32184029      -5.35601888E-28
   9.34584045      -8.27913950E-28
   9.36984062      -1.05210240E-27
   9.39383984      -1.18854915E-27
   9.41784000      -1.22702412E-27
   9.44184017      -1.16734514E-27
   9.46584034      -1.01876456E-27
   9.48984051      -7.98217458E-28
   9.51384068      -5.27727820E-28
   9.53783989      -2.31393044E-28
   9.56184006       6.75725100E-29
   9.58584023       3.49274666E-28
   9.60984039       5.98686397E-28
   9.63384056       8.06092345E-28
   9.65784073       9.66415853E-28
   9.68183994       1.07762040E-27
   9.70584011       1.13856077E-27
   9.72984028       1.14678882E-27
   9.75384045       1.09685986E-27
   9.77784061       9.79636207E-28
   9.80184078       7.82936985E-28
   9.82584000       4.93655856E-28
   9.84984016       1.01195461E-28
   9.87384033      -3.98217457E-28
   9.89784050      -9.97009925E-28
   9.92184067      -1.67236547E-27
   9.94583988      -2.38381863E-27
   9.96984005      -3.07310973E-27
   9.99384022      -3.66682193E-27
   10.0178404      -4.08195806E-27
   10.0418406      -4.23419281E-27
   10.0658407      -4.04806824E-27
   10.0898399      -3.46801473E-27
   10.1138401      -2.46878277E-27
   10.1378403      -1.06376429E-27
   10.1618404       6.90229362E-28
   10.1858406       2.69285489E-27
   10.2098408       4.80542016E-27
   10.2338400       6.86134575E-27
   10.2578402       8.68118854E-27
   10.2818403       1.00908375E-26
   10.3058405       1.09409222E-26
   10.3298407       1.11251497E-26
   10.3538399       1.05951870E-26
   10.3778400       9.36995887E-27
   10.4018402       7.53773851E-27
   10.4258404       5.25018903E-27
   10.4498405       2.70846205E-27
   10.4738407       1.42439564E-28
   10.4978399      -2.21485873E-27
   10.5218401      -4.15494310E-27
   10.5458403      -5.52040740E-27
   10.5698404      -6.22708849E-27
   10.5938406      -6.27887906E-27
   10.6178408      -5.77292301E-27
   10.6418400      -4.89391433E-27
   10.6658401      -3.89741930E-27
   10.6898403      -3.08338380E-27
   10.7138405      -2.76218490E-27
   10.7378407      -3.21652314E-27
   10.7618399      -4.66310087E-27
   10.7858400      -7.21825755E-27
   10.8098402      -1.08715148E-26
   10.8338404      -1.54703404E-26
   10.8578405      -2.07185041E-26
   10.8818407      -2.61890696E-26
   10.9058399      -3.13517760E-26
   10.9298401      -3.56131286E-26
   10.9538403      -3.83662409E-26
   10.9778404      -3.90465102E-26
   11.0018406      -3.71884839E-26
   11.0258408      -3.24788918E-26
   11.0498400      -2.48009718E-26
   11.0738401      -1.42656374E-26
   11.0978403      -1.22581031E-27
   11.1218405       1.37285155E-26
   11.1458406       2.97956801E-26
   11.1698399       4.60077639E-26
   11.1938400       6.12939562E-26
   11.2178402       7.45581592E-26
   11.2418404       8.47656372E-26
   11.2658405       9.10322620E-26
   11.2898407       9.27089242E-26
   11.3138399       8.94532706E-26
   11.3378401       8.12812263E-26
   11.3618402       6.85916221E-26
   11.3858404       5.21588483E-26
   11.4098406       3.30909554E-26
   11.4338408       1.27534780E-26
   11.4578400      -7.33720838E-27
   11.4818401      -2.56438204E-26
   11.5058403      -4.07508934E-26
   11.5298405      -5.15071906E-26
   11.5538406      -5.71532561E-26
   11.5778399      -5.74192501E-26
   11.6018400      -5.25798720E-26
   11.6258402      -4.34561378E-26
   11.6498404      -3.13586539E-26
   11.6738405      -1.79727567E-26
   11.6978407      -5.19259448E-27
   11.7218399       5.08225872E-27
   11.7458401       1.11683376E-26
   11.7698402       1.18145094E-26
   11.7938404       6.38754657E-27
   11.8178406      -4.99745579E-27
   11.8418407      -2.14223668E-26
   11.8658400      -4.12009725E-26
   11.8898401      -6.20085470E-26
   11.9138403      -8.11005032E-26
   11.9378405      -9.56036863E-26
   11.9618406      -1.02853922E-25
   11.9858398      -1.00745506E-25
   12.0098400      -8.80537328E-26
   12.0338402      -6.46909268E-26
   12.0578403      -3.18604310E-26
   12.0818405       7.91854571E-27
   12.1058407       5.09304717E-26
   12.1298399       9.25276465E-26
   12.1538401       1.27523026E-25
   12.1778402       1.50680876E-25
   12.2018404       1.57260777E-25
   12.2258406       1.43561776E-25
   12.2498407       1.07409588E-25
   12.2738400       4.85321157E-26
   12.2978401      -3.12233457E-26
   12.3218403      -1.27863506E-25
   12.3458405      -2.35427205E-25
   12.3698406      -3.46362002E-25
   12.3938398      -4.52071089E-25
   12.4178400      -5.43584230E-25
   12.4418402      -6.12291007E-25
   12.4658403      -6.50665294E-25
   12.4898405      -6.52909554E-25
   12.5138407      -6.15452416E-25
   12.5378399      -5.37247606E-25
   12.5618401      -4.19841635E-25
   12.5858402      -2.67201684E-25
   12.6098404      -8.53213774E-26
   12.6338406       1.18353566E-25
   12.6578407       3.35615646E-25
   12.6818399       5.58224305E-25
   12.7058401       7.78588359E-25
   12.7298403       9.90321189E-25
   12.7538404       1.18859733E-24
   12.7778406       1.37026500E-24
   12.8018408       1.53369183E-24
   12.8258400       1.67835502E-24
   12.8498402       1.80421857E-24
   12.8738403       1.91096979E-24
   12.8978405       1.99720806E-24
   12.9218407       2.05969590E-24
   12.9458399       2.09277915E-24
   12.9698400       2.08807971E-24
   12.9938402       2.03453755E-24
   13.0178404       1.91884952E-24
   13.0418406       1.72631264E-24