  -7.50215960       0.00000000    
  -7.47815990       0.00000000    
  -7.45415974       0.00000000    
  -7.43015957       0.00000000    
  -7.40615988       0.00000000    
  -7.38215971       0.00000000    
  -7.35815954       0.00000000    
  -7.33415985       0.00000000    
  -7.31015968       0.00000000    
  -7.28615952       0.00000000    
  -7.26215982       0.00000000    
  -7.23815966       0.00000000    
  -7.21415949       0.00000000    
  -7.19015980       0.00000000    
  -7.16615963       0.00000000    
  -7.14215946       0.00000000    
  -7.11815977       0.00000000    
  -7.09415960       0.00000000    
  -7.07015991       0.00000000    
  -7.04615974       0.00000000    
  -7.02215958       0.00000000    
  -6.99815989       0.00000000    
  -6.97415972       0.00000000    
  -6.95015955       0.00000000    
  -6.92615986       0.00000000    
  -6.90215969       0.00000000    
  -6.87815952       0.00000000    
  -6.85415983       0.00000000    
  -6.83015966       0.00000000    
  -6.80615950       0.00000000    
  -6.78215981       0.00000000    
  -6.75815964       0.00000000    
  -6.73415947       0.00000000    
  -6.71015978       0.00000000    
  -6.68615961       0.00000000    
  -6.66215992       0.00000000    
  -6.63815975       0.00000000    
  -6.61415958       0.00000000    
  -6.59015989       0.00000000    
  -6.56615973       0.00000000    
  -6.54215956       0.00000000    
  -6.51815987       0.00000000    
  -6.49415970       0.00000000    
  -6.47015953       0.00000000    
  -6.44615984       0.00000000    
  -6.42215967       0.00000000    
  -6.39815950       0.00000000    
  -6.37415981       0.00000000    
  -6.35015965       0.00000000    
  -6.32615948       0.00000000    
  -6.30215979       0.00000000    
  -6.27815962       0.00000000    
  -6.25415993       0.00000000    
  -6.23015976       0.00000000    
  -6.20615959       0.00000000    
  -6.18215990       0.00000000    
  -6.15815973       0.00000000    
  -6.13415956       0.00000000    
  -6.11015987       0.00000000    
  -6.08615971       0.00000000    
  -6.06215954       0.00000000    
  -6.03815985       0.00000000    
  -6.01415968       0.00000000    
  -5.99015951       0.00000000    
  -5.96615982       0.00000000    
  -5.94215965       0.00000000    
  -5.91815948       0.00000000    
  -5.89415979       0.00000000    
  -5.87015963       0.00000000    
  -5.84615946       0.00000000    
  -5.82215977       0.00000000    
  -5.79815960       0.00000000    
  -5.77415991       0.00000000    
  -5.75015974       0.00000000    
  -5.72615957       0.00000000    
  -5.70215988       0.00000000    
  -5.67815971       0.00000000    
  -5.65415955       0.00000000    
  -5.63015985       0.00000000    
  -5.60615969       0.00000000    
  -5.58215952       0.00000000    
  -5.55815983       0.00000000    
  -5.53415966       0.00000000    
  -5.51015949       0.00000000    
  -5.48615980       0.00000000    
  -5.46215963       0.00000000    
  -5.43815947       0.00000000    
  -5.41415977       0.00000000    
  -5.39015961       0.00000000    
  -5.36615992       0.00000000    
  -5.34215975       0.00000000    
  -5.31815958       0.00000000    
  -5.29415989       0.00000000    
  -5.27015972       0.00000000    
  -5.24615955       0.00000000    
  -5.22215986       0.00000000    
  -5.19815969       0.00000000    
  -5.17415953       0.00000000    
  -5.15015984       0.00000000    
  -5.12615967       0.00000000    
  -5.10215950       0.00000000    
  -5.07815981       0.00000000    
  -5.05415964       0.00000000    
  -5.03015947       0.00000000    
  -5.00615978       0.00000000    
  -4.98215961       0.00000000    
  -4.95815992       0.00000000    
  -4.93415976       0.00000000    
  -4.91015959       0.00000000    
  -4.88615990       0.00000000    
  -4.86215973       0.00000000    
  -4.83815956       0.00000000    
  -4.81415987       0.00000000    
  -4.79015970       0.00000000    
  -4.76615953       0.00000000    
  -4.74215984       0.00000000    
  -4.71815968       0.00000000    
  -4.69415951       0.00000000    
  -4.67015982       0.00000000    
  -4.64615965       0.00000000    
  -4.62215948       0.00000000    
  -4.59815979       0.00000000    
  -4.57415962       0.00000000    
  -4.55015945       0.00000000    
  -4.52615976       0.00000000    
  -4.50215960       0.00000000    
  -4.47815990       0.00000000    
  -4.45415974       0.00000000    
  -4.43015957       0.00000000    
  -4.40615988       0.00000000    
  -4.38215971       0.00000000    
  -4.35815954       0.00000000    
  -4.33415985       0.00000000    
  -4.31015968       0.00000000    
  -4.28615952       0.00000000    
  -4.26215982       0.00000000    
  -4.23815966       0.00000000    
  -4.21415949       0.00000000    
  -4.19015980       0.00000000    
  -4.16615963       0.00000000    
  -4.14215946       0.00000000    
  -4.11815977       0.00000000    
  -4.09415960       0.00000000    
  -4.07015991       0.00000000    
  -4.04615974       0.00000000    
  -4.02215958       0.00000000    
  -3.99815965       0.00000000    
  -3.97415972       0.00000000    
  -3.95015979       0.00000000    
  -3.92615962       0.00000000    
  -3.90215969       0.00000000    
  -3.87815976       0.00000000    
  -3.85415959       0.00000000    
  -3.83015966       0.00000000    
  -3.80615973       0.00000000    
  -3.78215981       0.00000000    
  -3.75815964       0.00000000    
  -3.73415971       0.00000000    
  -3.71015978       0.00000000    
  -3.68615961       0.00000000    
  -3.66215968       0.00000000    
  -3.63815975       0.00000000    
  -3.61415958       0.00000000    
  -3.59015965       0.00000000    
  -3.56615973       0.00000000    
  -3.54215980       0.00000000    
  -3.51815963       0.00000000    
  -3.49415970       0.00000000    
  -3.47015977       0.00000000    
  -3.44615960       0.00000000    
  -3.42215967       0.00000000    
  -3.39815974       0.00000000    
  -3.37415957       0.00000000    
  -3.35015965       0.00000000    
  -3.32615972       0.00000000    
  -3.30215979       0.00000000    
  -3.27815962       0.00000000    
  -3.25415969       0.00000000    
  -3.23015976       0.00000000    
  -3.20615959       0.00000000    
  -3.18215966       0.00000000    
  -3.15815973       0.00000000    
  -3.13415980       0.00000000    
  -3.11015964       0.00000000    
  -3.08615971       0.00000000    
  -3.06215978       0.00000000    
  -3.03815961       0.00000000    
  -3.01415968       0.00000000    
  -2.99015975       0.00000000    
  -2.96615958       0.00000000    
  -2.94215965       0.00000000    
  -2.91815972       0.00000000    
  -2.89415979       0.00000000    
  -2.87015963       0.00000000    
  -2.84615970       0.00000000    
  -2.82215977       0.00000000    
  -2.79815960       0.00000000    
  -2.77415967      -0.00000000    
  -2.75015974      -0.00000000    
  -2.72615957      -0.00000000    
  -2.70215964      -0.00000000    
  -2.67815971       0.00000000    
  -2.65415978       0.00000000    
  -2.63015962       0.00000000    
  -2.60615969       0.00000000    
  -2.58215976       0.00000000    
  -2.55815959       0.00000000    
  -2.53415966      -0.00000000    
  -2.51015973      -0.00000000    
  -2.48615980      -0.00000000    
  -2.46215963      -0.00000000    
  -2.43815970      -0.00000000    
  -2.41415977      -0.00000000    
  -2.39015961       0.00000000    
  -2.36615968       0.00000000    
  -2.34215975       0.00000000    
  -2.31815958       0.00000000    
  -2.29415965       0.00000000    
  -2.27015972       0.00000000    
  -2.24615979       2.80259693E-45
  -2.22215962       2.80259693E-45
  -2.19815969       2.80259693E-45
  -2.17415977       2.80259693E-45
  -2.15015960       1.40129846E-45
  -2.12615967       2.80259693E-45
  -2.10215974       7.00649232E-45
  -2.07815957       1.12103877E-44
  -2.05415964       1.40129846E-44
  -2.03015971       1.68155816E-44
  -2.00615978       1.82168800E-44
  -1.98215973       1.54142831E-44
  -1.95815969       1.40129846E-44
  -1.93415964       1.40129846E-44
  -1.91015971       1.40129846E-44
  -1.88615966       8.40779079E-45
  -1.86215973      -1.40129846E-45
  -1.83815968      -1.54142831E-44
  -1.81415963      -4.06376555E-44
  -1.79015970      -7.98740125E-44
  -1.76615965      -1.27518160E-43
  -1.74215972      -1.82168800E-43
  -1.71815968      -2.36819440E-43
  -1.69415975      -2.45227231E-43
  -1.67015970      -1.90576591E-43
  -1.64615965      -8.12753109E-44
  -1.62215972       7.28675201E-44
  -1.59815967       2.36819440E-43
  -1.57415974       3.89560973E-43
  -1.55015969       5.33894715E-43
  -1.52615964       6.75425860E-43
  -1.50215971       7.38484291E-43
  -1.47815967       6.03959638E-43
  -1.45415974       2.73253201E-43
  -1.43015969      -1.54142831E-43
  -1.40615964      -6.74024561E-43
  -1.38215971      -1.22053096E-42
  -1.35815966      -1.65353219E-42
  -1.33415973      -1.85391787E-42
  -1.31015968      -1.72359711E-42
  -1.28615963      -1.15607123E-42
  -1.26215971      -2.11596068E-43
  -1.23815966       9.93520611E-43
  -1.21415973       2.30793857E-42
  -1.19015968       3.38413579E-42
  -1.16615963       3.88860324E-42
  -1.14215970       3.54108122E-42
  -1.11815965       2.26589962E-42
  -1.09415972       8.54792063E-44
  -1.07015967      -2.73673590E-42
  -1.04615974      -5.56315490E-42
  -1.02215970      -7.76599609E-42
 -0.998159707      -8.70486606E-42
 -0.974159718      -7.75478570E-42
 -0.950159669      -4.66492259E-42
 -0.926159680       3.79751884E-43
 -0.902159691       6.64916121E-42
 -0.878159702       1.28541108E-41
 -0.854159713       1.76073152E-41
 -0.830159664       1.93729513E-41
 -0.806159675       1.69094686E-41
 -0.782159686       9.76424770E-42
 -0.758159697      -1.52321143E-42
 -0.734159708      -1.52643442E-41
 -0.710159659      -2.87770653E-41
 -0.686159670      -3.87332909E-41
 -0.662159681      -4.18609890E-41
 -0.638159692      -3.57008810E-41
 -0.614159703      -1.95355019E-41
 -0.590159714       5.26327703E-42
 -0.566159666       3.50002317E-41
 -0.542159677       6.37184425E-41
 -0.518159688       8.42026234E-41
 -0.494159698       8.95051368E-41
 -0.470159680       7.46429653E-41
 -0.446159691       3.79681819E-41
 -0.422159702      -1.72009386E-41
 -0.398159683      -8.23431004E-41
 -0.374159694      -1.44656040E-40
 -0.350159675      -1.88616175E-40
 -0.326159686      -1.99375344E-40
 -0.302159697      -1.66306102E-40
 -0.278159678      -8.63928529E-41
 -0.254159689       3.31042749E-41
 -0.230159685       1.74025855E-40
 -0.206159696       3.09109626E-40
 -0.182159692       4.05764187E-40
 -0.158159688       4.32678927E-40
 -0.134159684       3.67508739E-40
 -0.110159688       2.03918354E-40
  -8.61596912E-02  -4.33309511E-41
  -6.21596873E-02  -3.37079543E-40
  -3.81596908E-02  -6.20846686E-40
  -1.41596887E-02  -8.27738595E-40
   9.84031055E-03  -8.93386626E-40
   3.38403098E-02  -7.71152762E-40
   5.78403100E-02  -4.46888093E-40
   8.18403140E-02   5.04901850E-41
  0.105840310       6.46242418E-40
  0.129840314       1.22674012E-39
  0.153840318       1.65669772E-39
  0.177840307       1.80522555E-39
  0.201840311       1.57647619E-39
  0.225840315       9.39374439E-40
  0.249840304      -5.13744043E-41
  0.273840308      -1.24893528E-39
  0.297840297      -2.42754500E-39
  0.321840316      -3.31655957E-39
  0.345840305      -3.65144048E-39
  0.369840324      -3.23520159E-39
  0.393840313      -1.99723287E-39
  0.417840302      -3.60021601E-41
  0.441840321       2.36626622E-39
  0.465840310       4.76776949E-39
  0.489840299       6.63176129E-39
  0.513840318       7.42595841E-39
  0.537840307       6.74239941E-39
  0.561840296       4.41397385E-39
  0.585840285       6.02258462E-40
  0.609840333      -4.16882930E-39
  0.633840322      -9.05310835E-39
  0.657840312      -1.30016143E-38
  0.681840301      -1.49510040E-38
  0.705840290      -1.40537498E-38
  0.729840338      -9.90829838E-39
  0.753840327      -2.73806713E-39
  0.777840316       6.52980842E-39
  0.801840305       1.63232662E-38
  0.825840294       2.46361162E-38
  0.849840283       2.93750890E-38
  0.873840332       2.87949430E-38
  0.897840321       2.19439640E-38
  0.921840310       9.02555882E-39
  0.945840299      -8.41830193E-39
  0.969840288      -2.75758806E-38
  0.993840337      -4.47199546E-38
   1.01784027      -5.58269965E-38
   1.04184031      -5.73779705E-38
   1.06584036      -4.72030471E-38
   1.08984029      -2.51989870E-38
   1.11384034       6.25866417E-39
   1.13784027       4.23537192E-38
   1.16184032       7.63930357E-38
   1.18584037       1.00872963E-37
   1.20984030       1.08914309E-37
   1.23384035       9.58289726E-38
   1.25784028       6.05098109E-38
   1.28184032       6.31708991E-39
   1.30584025      -5.88167285E-38
   1.32984030      -1.23227900E-37
   1.35384035      -1.73300139E-37
   1.37784028      -1.95974595E-37
   1.40184033      -1.81592968E-37
   1.42584026      -1.26535816E-37
   1.44984031      -3.50655210E-38
   1.47384036       8.01540760E-38
   1.49784029       1.99202738E-37
   1.52184033       2.97767695E-37
   1.54584026       3.51430252E-37
   1.56984031       3.40729914E-37
   1.59384036       2.56088841E-37
   1.61784029       1.01550115E-37
   1.64184034      -1.03649631E-37
   1.66584027      -3.26370058E-37
   1.68984032      -5.23943074E-37
   1.71384037      -6.51257564E-37
   1.73784029      -6.69554935E-37
   1.76184034      -5.55419511E-37
   1.78584027      -3.08152819E-37
   1.80984032       4.62427737E-38
   1.83384037       4.55843242E-37
   1.85784030       8.48967235E-37
   1.88184035       1.14534782E-36
   1.90584028       1.27084794E-36
   1.92984033       1.17330133E-36
   1.95384026       8.36441197E-37
   1.97784030       2.88788466E-37
   2.00184035      -3.95099443E-37
   2.02584028      -1.10247356E-36
   2.04984021      -1.69916169E-36
   2.07384038      -2.05324941E-36
   2.09784031      -2.06194078E-36
   2.12184024      -1.67663850E-36
   2.14584041      -9.20867613E-37
   2.16984034       1.03707151E-37
   2.19384027       1.22624476E-36
   2.21784019       2.23117082E-36
   2.24184036       2.89553050E-36
   2.26584029       3.03365324E-36
   2.28984022       2.54116943E-36
   2.31384039       1.42930121E-36
   2.33784032      -1.59092341E-37
   2.36184025      -1.95788238E-36
   2.38584042      -3.61263192E-36
   2.40984035      -4.73929992E-36
   2.43384027      -4.99858202E-36
   2.45784020      -4.17334861E-36
   2.48184037      -2.23403046E-36
   2.50584030       6.23174557E-37
   2.52984023       3.97734619E-36
   2.55384040       7.22926371E-36
   2.57784033       9.69125426E-36
   2.60184026       1.07095592E-35
   2.62584043       9.80014892E-36
   2.64984035       6.77327751E-36
   2.67384028       1.82040769E-36
   2.69784021      -4.45951806E-36
   2.72184038      -1.11091793E-35
   2.74584031      -1.69395552E-35
   2.76984024      -2.07215820E-35
   2.79384041      -2.14156388E-35
   2.81784034      -1.84002102E-35
   2.84184027      -1.16554376E-35
   2.86584020      -1.85936836E-36
   2.88984036       9.63475463E-36
   2.91384029       2.09535886E-35
   2.93784022       2.99811212E-35
   2.96184039       3.47234832E-35
   2.98584032       3.37043532E-35
   3.00984025       2.63201536E-35
   3.03384042       1.30816364E-35
   3.05784035      -4.32033921E-36
   3.08184028      -2.31624977E-35
   3.10584021      -4.00528750E-35
   3.12984037      -5.14725329E-35
   3.15384030      -5.44183286E-35
   3.17784023      -4.70401012E-35
   3.20184040      -2.91518093E-35
   3.22584033      -2.50364477E-36
   3.24984026       2.92686901E-35
   3.27384043       6.10518992E-35
   3.29784036       8.69925054E-35
   3.32184029       1.01470658E-34
   3.34584022       1.00160636E-34
   3.36984038       8.09926972E-35
   3.39384031       4.48246216E-35
   3.41784024      -4.33913608E-36
   3.44184041      -5.96798941E-35
   3.46584034      -1.12457731E-34
   3.48984027      -1.53370639E-34
   3.51384020      -1.74186360E-34
   3.53784037      -1.69377589E-34
   3.56184030      -1.37455617E-34
   3.58584023      -8.17143233E-35
   3.60984039      -1.01694410E-35
   3.63384032       6.54001378E-35
   3.65784025       1.31246171E-34
   3.68184042       1.74052556E-34
   3.70584035       1.83573245E-34
   3.72984028       1.55040565E-34
   3.75384021       9.08572989E-35
   3.77784038       1.15209755E-36
   3.80184031      -9.70693388E-35
   3.82584023      -1.82222104E-34
   3.84984040      -2.31672396E-34
   3.87384033      -2.26025822E-34
   3.89784026      -1.53492230E-34
   3.92184043      -1.35332891E-35
   3.94584036       1.80986090E-34
   3.96984029       4.03764631E-34
   3.99384022       6.17483004E-34
   4.01784039       7.78618071E-34
   4.04184008       8.44166942E-34
   4.06584024       7.79388754E-34
   4.08984041       5.65366222E-34
   4.11384010       2.05051650E-34
   4.13784027      -2.73468223E-34
   4.16184044      -8.17452914E-34
   4.18584013      -1.35419952E-33
   4.20984030      -1.79976230E-33
   4.23384047      -2.07081862E-33
   4.25784016      -2.09815621E-33
   4.28184032      -1.83979413E-33
   4.30584049      -1.29153952E-33
   4.32984018      -4.92934235E-34
   4.35384035       4.72972596E-34
   4.37784052       1.48677931E-33
   4.40184021       2.40654201E-33
   4.42584038       3.08686653E-33
   4.44984055       3.40090058E-33
   4.47384024       3.26210188E-33
   4.49784040       2.64232928E-33
   4.52184010       1.58300188E-33
   4.54584026       1.96788522E-34
   4.56984043      -1.34149114E-33
   4.59384012      -2.81452800E-33
   4.61784029      -3.99084263E-33
   4.64184046      -4.65830926E-33
   4.66584015      -4.65825967E-33
   4.68984032      -3.91498540E-33
   4.71384048      -2.45565527E-33
   4.73784018      -4.16655993E-34
   4.76184034       1.96590685E-33
   4.78584051       4.38158136E-33
   4.80984020       6.48439124E-33
   4.83384037       7.94038132E-33
   4.85784054       8.47739122E-33
   4.88184023       7.92964465E-33
   4.90584040       6.26991348E-33
   4.92984009       3.62334746E-33
   4.95384026       2.59423705E-34
   4.97784042      -3.43836028E-33
   5.00184011      -7.02197934E-33
   5.02584028      -1.00411653E-32
   5.04984045      -1.21095578E-32
   5.07384014      -1.29644625E-32
   5.09784031      -1.25101604E-32
   5.12184048      -1.08365900E-32
   5.14584017      -8.20860709E-33
   5.16984034      -5.02550431E-33
   5.19384050      -1.75543643E-33
   5.21784019       1.14593489E-33
   5.24184036       3.31969266E-33
   5.26584053       4.57616241E-33
   5.28984022       4.94150458E-33
   5.31384039       4.66723604E-33
   5.33784008       4.19670401E-33
   5.36184025       4.08936338E-33
   5.38584042       4.91121650E-33
   5.40984011       7.10679860E-33
   5.43384027       1.08734050E-32
   5.45784044       1.60607896E-32
   5.48184013       2.21184984E-32
   5.50584030       2.81081212E-32
   5.52984047       3.27892600E-32
   5.55384016       3.47769827E-32
   5.57784033       3.27561140E-32
   5.60184050       2.57261817E-32
   5.62584019       1.32416118E-32
   5.64984035      -4.39288814E-33
   5.67384052      -2.60108717E-32
   5.69784021      -4.95884231E-32
   5.72184038      -7.23825752E-32
   5.74584007      -9.12042263E-32
   5.76984024      -1.02805092E-31
   5.79384041      -1.04337842E-31
   5.81784010      -9.38313974E-32
   5.84184027      -7.06127920E-32
   5.86584044      -3.56054094E-32
   5.88984013       8.55799707E-33
   5.91384029       5.76499281E-32
   5.93784046       1.06204845E-31
   5.96184015       1.48098699E-31
   5.98584032       1.77296745E-31
   6.00984049       1.88683500E-31
   6.03384018       1.78865724E-31
   6.05784035       1.46830059E-31
   6.08184052       9.43435309E-32
   6.10584021       2.60091408E-32
   6.12984037      -5.10705863E-32
   6.15384054      -1.28018094E-31
   6.17784023      -1.95231156E-31
   6.20184040      -2.43642528E-31
   6.22584009      -2.66027490E-31
   6.24984026      -2.58173072E-31
   6.27384043      -2.19722064E-31
   6.29784012      -1.54532215E-31
   6.32184029      -7.04460658E-32
   6.34584045       2.15567664E-32
   6.36984015       1.08762650E-31
   6.39384031       1.78528792E-31
   6.41784048       2.20257995E-31
   6.44184017       2.27257735E-31
   6.46584034       1.98182799E-31
   6.48984051       1.37788991E-31
   6.51384020       5.67979710E-32
   6.53784037      -2.92126597E-32
   6.56184053      -1.01841316E-31
   6.58584023      -1.42613913E-31
   6.60984039      -1.36116392E-31
   6.63384008      -7.30681411E-32
   6.65784025       4.71508211E-32
   6.68184042       2.14984140E-31
   6.70584011       4.10565758E-31
   6.72984028       6.05176042E-31
   6.75384045       7.64280425E-31
   6.77784014       8.51903608E-31
   6.80184031       8.35860743E-31
   6.82584047       6.93179427E-31
   6.84984016       4.14935964E-31
   6.87384033       9.72336601E-33
   6.89784050      -4.94923841E-31
   6.92184019      -1.05360057E-30
   6.94584036      -1.60673640E-30
   6.96984053      -2.08670842E-30
   6.99384022      -2.42575503E-30
   7.01784039      -2.56477200E-30
   7.04184008      -2.46183932E-30
   7.06584024      -2.09926909E-30
   7.08984041      -1.48805651E-30
   7.11384010      -6.68898791E-31
   7.13784027       2.90630587E-31
   7.16184044       1.30263939E-30
   7.18584013       2.26854235E-30
   7.20984030       3.09059226E-30
   7.23384047       3.68379730E-30
   7.25784016       3.98654408E-30
   7.28184032       3.96834367E-30
   7.30584049       3.63345492E-30
   7.32984018       3.01971089E-30
   7.35384035       2.19258661E-30
   7.37784052       1.23530219E-30
   7.40184021       2.36451300E-31
   7.42584038      -7.22870439E-31
   7.44984055      -1.58026351E-30
   7.47384024      -2.29952330E-30
   7.49784040      -2.87294242E-30
   7.52184010      -3.31774121E-30
   7.54584026      -3.66697851E-30
   7.56984043      -3.95636641E-30
   7.59384012      -4.20934371E-30
   7.61784029      -4.42337245E-30
   7.64184046      -4.56056788E-30
   7.66584015      -4.54537635E-30
   7.68984032      -4.27106186E-30
   7.71384048      -3.61535720E-30
   7.73784018      -2.46397985E-30
   7.76184034      -7.39000902E-31
   7.78584051       1.57232422E-30
   7.80984020       4.39352618E-30
   7.83384037       7.54501563E-30
   7.85784054       1.07447775E-29
   7.88184023       1.36264118E-29
   7.90584040       1.57747987E-29
   7.92984009       1.67767773E-29
   7.95384026       1.62813453E-29
   7.97784042       1.40614477E-29
   8.00184059       1.00679568E-29
   8.02584076       4.46626163E-30
   8.04983997      -2.35279313E-30
   8.07384014      -9.79304532E-30
   8.09784031      -1.71056147E-29
   8.12184048      -2.34704987E-29
   8.14584064      -2.80988214E-29
   8.16983986      -3.03431617E-29
   8.19384003      -2.98005700E-29
   8.21784019      -2.63921164E-29
   8.24184036      -2.04044619E-29
   8.26584053      -1.24829473E-29
   8.28984070      -3.57183682E-30
   8.31383991       5.19518173E-30
   8.33784008       1.26433238E-29
   8.36184025       1.77259237E-29
   8.38584042       1.96915488E-29
   8.40984058       1.82239812E-29
   8.43384075       1.35313912E-29
   8.45783997       6.36634123E-30
   8.48184013      -2.03343633E-30
   8.50584030      -1.00827007E-29
   8.52984047      -1.60524546E-29
   8.55384064      -1.83164815E-29
   8.57783985      -1.56090408E-29
   8.60184002      -7.25756381E-30
   8.62584019       6.64531143E-30
   8.64984035       2.51602961E-29
   8.67384052       4.65300582E-29
   8.69784069       6.83231893E-29
   8.72183990       8.76829320E-29
   8.74584007       1.01654735E-28
   8.76984024       1.07553979E-28
   8.79384041       1.03327502E-28
   8.81784058       8.78606171E-29
   8.84184074       6.11869629E-29
   8.86583996       2.45695412E-29
   8.88984013      -1.95620180E-29
   8.91384029      -6.78139433E-29
   8.93784046      -1.16147527E-28
   8.96184063      -1.60276071E-28
   8.98583984      -1.96089917E-28
   9.00984001      -2.20056659E-28
   9.03384018      -2.29548147E-28
   9.05784035      -2.23057643E-28
   9.08184052      -2.00287855E-28
   9.10584068      -1.62110760E-28
   9.12983990      -1.10419606E-28
   9.15384007      -4.79091685E-29
   9.17784023       2.21708120E-29
   9.20184040       9.62433355E-29
   9.22584057       1.70576076E-28
   9.24984074       2.41376487E-28
   9.27383995       3.04810192E-28
   9.29784012       3.56964976E-28
   9.32184029       3.93802648E-28
   9.34584045       4.11152291E-28
   9.36984062       4.04801441E-28
   9.39383984       3.70730416E-28
   9.41784000       3.05513710E-28
   9.44184017       2.06881084E-28
   9.46584034       7.43935279E-29
   9.48984051      -8.98456310E-29
   9.51384068      -2.80553200E-28
   9.53783989      -4.88827405E-28
   9.56184006      -7.02031172E-28
   9.58584023      -9.04099405E-28
   9.60984039      -1.07633041E-27
   9.63384056      -1.19866615E-27
   9.65784073      -1.25139994E-27
   9.68183994      -1.21717973E-27
   9.70584011      -1.08311941E-27
   9.72984028      -8.42787521E-28
   9.75384045      -4.97826987E-28
   9.77784061      -5.89729619E-29
   9.80184078       4.53718858E-28
   9.82584000       1.01154569E-27
   9.84984016       1.57875401E-27
   9.87384033       2.11497384E-27
   9.89784050       2.57830154E-27
   9.92184067       2.92876013E-27
   9.94583988       3.13179879E-27
   9.96984005       3.16148064E-27
   9.99384022       3.00301493E-27
   10.0178404       2.65435478E-27
   10.0418406       2.12667694E-27
   10.0658407       1.44367478E-27
   10.0898399       6.39726761E-28
   10.1138401      -2.42870816E-28
   10.1378403      -1.15731596E-27
   10.1618404      -2.05599608E-27
   10.1858406      -2.89407393E-27
   10.2098408      -3.63259469E-27
   10.2338400      -4.24080799E-27
   10.2578402      -4.69748951E-27
   10.2818403      -4.99118997E-27
   10.3058405      -5.11944959E-27
   10.3298407      -5.08715213E-27
   10.3538399      -4.90429779E-27
   10.3778400      -4.58351451E-27
   10.4018402      -4.13767598E-27
   10.4258404      -3.57794296E-27
   10.4498405      -2.91249468E-27
   10.4738407      -2.14611054E-27
   10.4978399      -1.28065155E-27
   10.5218401      -3.16374414E-28
   10.5458403       7.46096594E-28
   10.5698404       1.90338751E-27
   10.5938406       3.14687785E-27
   10.6178408       4.46039520E-27
   10.6418400       5.81837958E-27
   10.6658401       7.18474098E-27
   10.6898403       8.51257569E-27
   10.7138405       9.74481186E-27
   10.7378407       1.08158107E-26
   10.7618399       1.16538645E-26
   10.7858400       1.21845036E-26
   10.8098402       1.23344928E-26
   10.8338404       1.20363704E-26
   10.8578405       1.12333647E-26
   10.8818407       9.88450341E-27
   10.9058399       7.96967915E-27
   10.9298401       5.49439425E-27
   10.9538403       2.49383988E-27
   10.9778404      -9.64095493E-28
   11.0018406      -4.77733509E-27
   11.0258408      -8.81010952E-27
   11.0498400      -1.28958505E-26
   11.0738401      -1.68427920E-26
   11.0978403      -2.04424182E-26
   11.1218405      -2.34806005E-26
   11.1458406      -2.57510238E-26
   11.1698399      -2.70701163E-26
   11.1938400      -2.72923964E-26
   11.2178402      -2.63249571E-26
   11.2418404      -2.41395366E-26
   11.2658405      -2.07807872E-26
   11.2898407      -1.63694154E-26
   11.3138399      -1.10992321E-26
   11.3378401      -5.22774424E-27
   11.3618402       9.39576672E-28
   11.3858404       7.07042086E-27
   11.4098406       1.28306416E-26
   11.4338408       1.79110237E-26
   11.4578400       2.20533400E-26
   11.4818401       2.50730841E-26
   11.5058403       2.68764356E-26
   11.5298405       2.74694032E-26
   11.5538406       2.69578115E-26
   11.5778399       2.55376939E-26
   11.6018400       2.34765837E-26
   11.6258402       2.10871980E-26
   11.6498404       1.86959033E-26
   11.6738405       1.66088994E-26
   11.6978407       1.50794814E-26
   11.7218399       1.42796350E-26
   11.7458401       1.42789263E-26
   11.7698402       1.50328878E-26
   11.7938404       1.63821589E-26
   11.8178406       1.80626406E-26
   11.8418407       1.97256503E-26
   11.8658400       2.09662388E-26
   11.8898401       2.13569284E-26
   11.9138403       2.04836763E-26
   11.9378405       1.79807747E-26
   11.9618406       1.35616160E-26
   11.9858398       7.04287158E-27
   12.0098400      -1.63961099E-27
   12.0338402      -1.24237827E-26
   12.0578403      -2.51229072E-26
   12.0818405      -3.94343000E-26
   12.1058407      -5.49532709E-26
   12.1298399      -7.11898588E-26
   12.1538401      -8.75858828E-26
   12.1778402      -1.03530179E-25
   12.2018404      -1.18370452E-25
   12.2258406      -1.31421355E-25
   12.2498407      -1.41969041E-25
   12.2738400      -1.49274115E-25
   12.2978401      -1.52575116E-25
   12.3218403      -1.51096014E-25
   12.3458405      -1.44060953E-25
   12.3698406      -1.30719515E-25
   12.3938398      -1.10384555E-25
   12.4178400      -8.24841098E-26
   12.4418402      -4.66261785E-26
   12.4658403      -2.67419051E-27
   12.4898405       4.91718881E-26
   12.5138407       1.08295146E-25
   12.5378399       1.73590284E-25
   12.5618401       2.43409812E-25
   12.5858402       3.15537188E-25
   12.6098404       3.87194453E-25
   12.6338406       4.55091292E-25
   12.6578407       5.15518580E-25
   12.6818399       5.64487466E-25
   12.7058401       5.97909580E-25
   12.7298403       6.11812316E-25
   12.7538404       6.02577467E-25
   12.7778406       5.67190547E-25
   12.8018408       5.03484113E-25
   12.8258400       4.10359477E-25
   12.8498402       2.87970543E-25
   12.8738403       1.37855391E-25
   12.8978405      -3.69957399E-26
   12.9218407      -2.32143966E-25
   12.9458399      -4.41780152E-25
   12.9698400      -6.58876991E-25
   12.9938402      -8.75410089E-25
   13.0178404      -1.08263823E-24
   13.0418406      -1.27143039E-24