  -7.50215960       0.00000000    
  -7.47815990       0.00000000    
  -7.45415974       0.00000000    
  -7.43015957       0.00000000    
  -7.40615988       0.00000000    
  -7.38215971       0.00000000    
  -7.35815954       0.00000000    
  -7.33415985       0.00000000    
  -7.31015968       0.00000000    
  -7.28615952       0.00000000    
  -7.26215982       0.00000000    
  -7.23815966       0.00000000    
  -7.21415949       0.00000000    
  -7.19015980       0.00000000    
  -7.16615963       0.00000000    
  -7.14215946       0.00000000    
  -7.11815977       0.00000000    
  -7.09415960       0.00000000    
  -7.07015991       0.00000000    
  -7.04615974       0.00000000    
  -7.02215958       0.00000000    
  -6.99815989       0.00000000    
  -6.97415972       0.00000000    
  -6.95015955       0.00000000    
  -6.92615986       0.00000000    
  -6.90215969       0.00000000    
  -6.87815952       0.00000000    
  -6.85415983       0.00000000    
  -6.83015966       0.00000000    
  -6.80615950       0.00000000    
  -6.78215981       0.00000000    
  -6.75815964       0.00000000    
  -6.73415947       0.00000000    
  -6.71015978       0.00000000    
  -6.68615961       0.00000000    
  -6.66215992       0.00000000    
  -6.63815975       0.00000000    
  -6.61415958       0.00000000    
  -6.59015989       0.00000000    
  -6.56615973       0.00000000    
  -6.54215956       0.00000000    
  -6.51815987       0.00000000    
  -6.49415970       0.00000000    
  -6.47015953       0.00000000    
  -6.44615984       0.00000000    
  -6.42215967       0.00000000    
  -6.39815950       0.00000000    
  -6.37415981       0.00000000    
  -6.35015965       0.00000000    
  -6.32615948       0.00000000    
  -6.30215979       0.00000000    
  -6.27815962       0.00000000    
  -6.25415993       0.00000000    
  -6.23015976       0.00000000    
  -6.20615959       0.00000000    
  -6.18215990       0.00000000    
  -6.15815973       0.00000000    
  -6.13415956       0.00000000    
  -6.11015987       0.00000000    
  -6.08615971       0.00000000    
  -6.06215954       0.00000000    
  -6.03815985       0.00000000    
  -6.01415968       0.00000000    
  -5.99015951       0.00000000    
  -5.96615982       0.00000000    
  -5.94215965       0.00000000    
  -5.91815948       0.00000000    
  -5.89415979       0.00000000    
  -5.87015963       0.00000000    
  -5.84615946       0.00000000    
  -5.82215977       0.00000000    
  -5.79815960       0.00000000    
  -5.77415991       0.00000000    
  -5.75015974       0.00000000    
  -5.72615957       0.00000000    
  -5.70215988       0.00000000    
  -5.67815971       0.00000000    
  -5.65415955       0.00000000    
  -5.63015985       0.00000000    
  -5.60615969       0.00000000    
  -5.58215952       0.00000000    
  -5.55815983       0.00000000    
  -5.53415966       0.00000000    
  -5.51015949       0.00000000    
  -5.48615980       0.00000000    
  -5.46215963       0.00000000    
  -5.43815947       0.00000000    
  -5.41415977       0.00000000    
  -5.39015961       0.00000000    
  -5.36615992       0.00000000    
  -5.34215975       0.00000000    
  -5.31815958       0.00000000    
  -5.29415989       0.00000000    
  -5.27015972       0.00000000    
  -5.24615955       0.00000000    
  -5.22215986       0.00000000    
  -5.19815969       0.00000000    
  -5.17415953       0.00000000    
  -5.15015984       0.00000000    
  -5.12615967       0.00000000    
  -5.10215950       0.00000000    
  -5.07815981       0.00000000    
  -5.05415964       0.00000000    
  -5.03015947       0.00000000    
  -5.00615978       0.00000000    
  -4.98215961       0.00000000    
  -4.95815992       0.00000000    
  -4.93415976       0.00000000    
  -4.91015959       0.00000000    
  -4.88615990       0.00000000    
  -4.86215973       0.00000000    
  -4.83815956       0.00000000    
  -4.81415987       0.00000000    
  -4.79015970       0.00000000    
  -4.76615953       0.00000000    
  -4.74215984       0.00000000    
  -4.71815968       0.00000000    
  -4.69415951       0.00000000    
  -4.67015982       0.00000000    
  -4.64615965       0.00000000    
  -4.62215948       0.00000000    
  -4.59815979       0.00000000    
  -4.57415962       0.00000000    
  -4.55015945       0.00000000    
  -4.52615976       0.00000000    
  -4.50215960       0.00000000    
  -4.47815990       0.00000000    
  -4.45415974       0.00000000    
  -4.43015957       0.00000000    
  -4.40615988       0.00000000    
  -4.38215971       0.00000000    
  -4.35815954       0.00000000    
  -4.33415985       0.00000000    
  -4.31015968       0.00000000    
  -4.28615952       0.00000000    
  -4.26215982       0.00000000    
  -4.23815966       0.00000000    
  -4.21415949       0.00000000    
  -4.19015980       0.00000000    
  -4.16615963       0.00000000    
  -4.14215946       0.00000000    
  -4.11815977       0.00000000    
  -4.09415960       0.00000000    
  -4.07015991       0.00000000    
  -4.04615974       0.00000000    
  -4.02215958       0.00000000    
  -3.99815965       0.00000000    
  -3.97415972       0.00000000    
  -3.95015979       0.00000000    
  -3.92615962       0.00000000    
  -3.90215969       0.00000000    
  -3.87815976       0.00000000    
  -3.85415959       0.00000000    
  -3.83015966       0.00000000    
  -3.80615973       0.00000000    
  -3.78215981       0.00000000    
  -3.75815964       0.00000000    
  -3.73415971       0.00000000    
  -3.71015978       0.00000000    
  -3.68615961       0.00000000    
  -3.66215968       0.00000000    
  -3.63815975       0.00000000    
  -3.61415958       0.00000000    
  -3.59015965       0.00000000    
  -3.56615973       0.00000000    
  -3.54215980       0.00000000    
  -3.51815963       0.00000000    
  -3.49415970       0.00000000    
  -3.47015977       0.00000000    
  -3.44615960       0.00000000    
  -3.42215967       0.00000000    
  -3.39815974       0.00000000    
  -3.37415957       0.00000000    
  -3.35015965       0.00000000    
  -3.32615972       0.00000000    
  -3.30215979       0.00000000    
  -3.27815962       0.00000000    
  -3.25415969       0.00000000    
  -3.23015976       0.00000000    
  -3.20615959       0.00000000    
  -3.18215966       0.00000000    
  -3.15815973       0.00000000    
  -3.13415980       0.00000000    
  -3.11015964       0.00000000    
  -3.08615971       0.00000000    
  -3.06215978       0.00000000    
  -3.03815961       0.00000000    
  -3.01415968       0.00000000    
  -2.99015975      -0.00000000    
  -2.96615958      -0.00000000    
  -2.94215965      -0.00000000    
  -2.91815972      -0.00000000    
  -2.89415979      -0.00000000    
  -2.87015963      -0.00000000    
  -2.84615970      -0.00000000    
  -2.82215977      -0.00000000    
  -2.79815960      -0.00000000    
  -2.77415967      -0.00000000    
  -2.75015974      -0.00000000    
  -2.72615957      -0.00000000    
  -2.70215964      -0.00000000    
  -2.67815971      -0.00000000    
  -2.65415978      -0.00000000    
  -2.63015962      -0.00000000    
  -2.60615969       0.00000000    
  -2.58215976       0.00000000    
  -2.55815959       0.00000000    
  -2.53415966       0.00000000    
  -2.51015973       0.00000000    
  -2.48615980      -0.00000000    
  -2.46215963      -0.00000000    
  -2.43815970      -0.00000000    
  -2.41415977      -0.00000000    
  -2.39015961      -0.00000000    
  -2.36615968      -0.00000000    
  -2.34215975       0.00000000    
  -2.31815958       0.00000000    
  -2.29415965       0.00000000    
  -2.27015972       0.00000000    
  -2.24615979       1.40129846E-45
  -2.22215962       1.40129846E-45
  -2.19815969       1.40129846E-45
  -2.17415977       1.40129846E-45
  -2.15015960       2.80259693E-45
  -2.12615967       4.20389539E-45
  -2.10215974       4.20389539E-45
  -2.07815957       4.20389539E-45
  -2.05415964       4.20389539E-45
  -2.03015971       5.60519386E-45
  -2.00615978       7.00649232E-45
  -1.98215973       5.60519386E-45
  -1.95815969       2.80259693E-45
  -1.93415964       1.40129846E-45
  -1.91015971       1.40129846E-45
  -1.88615966      -2.80259693E-45
  -1.86215973      -7.00649232E-45
  -1.83815968      -9.80908925E-45
  -1.81415963      -5.60519386E-45
  -1.79015970       1.40129846E-45
  -1.76615965       8.40779079E-45
  -1.74215972       1.54142831E-44
  -1.71815968       3.50324616E-44
  -1.69415975       5.18480432E-44
  -1.67015970       5.18480432E-44
  -1.64615965       4.20389539E-44
  -1.62215972       5.60519386E-45
  -1.59815967      -4.20389539E-44
  -1.57415974      -9.38869971E-44
  -1.55015969      -1.35925951E-43
  -1.52615964      -1.33123354E-43
  -1.50215971      -7.70714155E-44
  -1.47815967      -1.68155816E-44
  -1.45415974       4.34402524E-44
  -1.43015969       9.94921910E-44
  -1.40615964       1.47136339E-43
  -1.38215971       2.71851902E-43
  -1.35815966       3.99370062E-43
  -1.33415973       4.18988241E-43
  -1.31015968       3.18094751E-43
  -1.28615963       1.35925951E-43
  -1.26215971      -8.68805048E-44
  -1.23815966      -3.09686961E-43
  -1.21415973      -4.75040179E-43
  -1.19015968      -5.54914192E-43
  -1.16615963      -4.62428493E-43
  -1.14215970      -1.94780487E-43
  -1.11815965       2.25609053E-43
  -1.09415972       7.34280395E-43
  -1.07015967       1.19250499E-42
  -1.04615974       1.47136339E-42
  -1.02215970       1.42792314E-42
 -0.998159707       1.05657904E-42
 -0.974159718       3.82554481E-43
 -0.950159669      -5.81538863E-43
 -0.926159680      -1.73901139E-42
 -0.902159691      -2.85584627E-42
 -0.878159702      -3.59012667E-42
 -0.854159713      -3.67140198E-42
 -0.830159664      -2.97215404E-42
 -0.806159675      -1.48117248E-42
 -0.782159686       6.27781712E-43
 -0.758159697       2.96795015E-42
 -0.734159708       5.06289135E-42
 -0.710159659       6.31144828E-42
 -0.686159670       6.26940933E-42
 -0.662159681       4.65371220E-42
 -0.638159692       1.49658676E-42
 -0.614159703      -2.77316966E-42
 -0.590159714      -7.32038318E-42
 -0.566159666      -1.10394293E-41
 -0.542159677      -1.28372952E-41
 -0.518159688      -1.17653019E-41
 -0.494159698      -7.36382343E-42
 -0.470159680       1.87773994E-43
 -0.446159691       9.79787886E-42
 -0.422159702       1.97148681E-41
 -0.398159683       2.76966641E-41
 -0.374159694       3.14030986E-41
 -0.350159675       2.89157938E-41
 -0.326159686       1.92902747E-41
 -0.302159697       3.09686961E-42
 -0.278159678      -1.75750853E-41
 -0.254159689      -3.91718973E-41
 -0.230159685      -5.71659709E-41
 -0.206159696      -6.68713640E-41
 -0.182159692      -6.43924670E-41
 -0.158159688      -4.76791802E-41
 -0.134159684      -1.75358490E-41
 -0.110159688       2.22792443E-41
  -8.61596912E-02   6.53873889E-41
  -6.21596873E-02   1.03438247E-40
  -3.81596908E-02   1.27607843E-40
  -1.41596887E-02   1.30494518E-40
   9.84031055E-03   1.07943422E-40
   3.38403098E-02   6.04197859E-41
   5.78403100E-02  -6.37871061E-42
   8.18403140E-02  -8.18554485E-41
  0.105840310      -1.51907760E-40
  0.129840314      -2.01735131E-40
  0.153840318      -2.18770716E-40
  0.177840307      -1.95652094E-40
  0.201840311      -1.32588058E-40
  0.225840315      -3.84992740E-41
  0.249840304       6.96851713E-41
  0.273840308       1.70148462E-40
  0.297840297       2.39942935E-40
  0.321840316       2.60205711E-40
  0.345840305       2.21402355E-40
  0.369840324       1.26804899E-40
  0.393840313      -6.11106260E-42
  0.417840302      -1.47420802E-40
  0.441840321      -2.59569521E-40
  0.465840310      -3.05167773E-40
  0.489840299      -2.56011624E-40
  0.513840318      -1.01634776E-40
  0.537840307       1.44284696E-40
  0.561840296       4.41666855E-40
  0.585840285       7.27090333E-40
  0.609840333       9.22771854E-40
  0.633840322       9.50626865E-40
  0.657840312       7.49138363E-40
  0.681840301       2.90483566E-40
  0.705840290      -4.05800621E-40
  0.729840338      -1.26574386E-39
  0.753840327      -2.16265755E-39
  0.777840316      -2.92994833E-39
  0.801840305      -3.38349680E-39
  0.825840294      -3.35158223E-39
  0.849840283      -2.70877719E-39
  0.873840332      -1.40759870E-39
  0.897840321       4.97109229E-40
  0.921840310       2.83665269E-39
  0.945840299       5.33355075E-39
  0.969840288       7.62507451E-39
  0.993840337       9.30447467E-39
   1.01784027       9.97600352E-39
   1.04184031       9.31777859E-39
   1.06584036       7.14384339E-39
   1.08984029       3.45659553E-39
   1.11384034      -1.51948538E-39
   1.13784027      -7.33121241E-39
   1.16184032      -1.33218096E-38
   1.18584037      -1.86899178E-38
   1.20984030      -2.25799966E-38
   1.23384035      -2.41956012E-38
   1.25784028      -2.29241036E-38
   1.28184032      -1.84558084E-38
   1.30584025      -1.08784790E-38
   1.32984030      -7.28376725E-40
   1.35384035       1.10190726E-38
   1.37784028       2.30283028E-38
   1.40184033       3.37532667E-38
   1.42584026       4.16459682E-38
   1.44984031       4.53986146E-38
   1.47384036       4.41826211E-38
   1.49784029       3.78392120E-38
   1.52184033       2.69770946E-38
   1.54584026       1.29394261E-38
   1.56984031      -2.37827254E-39
   1.59384036      -1.68513035E-38
   1.61784029      -2.85492366E-38
   1.64184034      -3.61853687E-38
   1.66584027      -3.94955720E-38
   1.68984032      -3.94400049E-38
   1.71384037      -3.81347262E-38
   1.73784029      -3.84588185E-38
   1.76184034      -4.33451351E-38
   1.78584027      -5.48416203E-38
   1.80984032      -7.31104212E-38
   1.83384037      -9.55964467E-38
   1.85784030      -1.16627571E-37
   1.88184035      -1.27685531E-37
   1.90584028      -1.18500345E-37
   1.92984033      -7.89761165E-38
   1.95384026      -1.76614614E-39
   1.97784030       1.14889580E-37
   2.00184035       2.64627413E-37
   2.02584028       4.31386481E-37
   2.04984021       5.89444518E-37
   2.07384038       7.05542118E-37
   2.09784031       7.43262248E-37
   2.12184024       6.69394582E-37
   2.14584041       4.61516730E-37
   2.16984034       1.15566418E-37
   2.19384027      -3.48150384E-37
   2.21784019      -8.82146934E-37
   2.24184036      -1.41353142E-36
   2.26584029      -1.85117742E-36
   2.28984022      -2.09819823E-36
   2.31384039      -2.06854218E-36
   2.33784032      -1.70542355E-36
   2.36184025      -9.98402690E-37
   2.38584042       4.51477906E-39
   2.40984035       1.19322147E-36
   2.43384027       2.40282751E-36
   2.45784020       3.43287075E-36
   2.48184037       4.07716887E-36
   2.50584030       4.16071549E-36
   2.52984023       3.57787900E-36
   2.55384040       2.32475460E-36
   2.57784033       5.18241516E-37
   2.60184026      -1.60443356E-36
   2.62584043      -3.70938062E-36
   2.64984035      -5.41265787E-36
   2.67384028      -6.34499407E-36
   2.69784021      -6.22527789E-36
   2.72184038      -4.92996117E-36
   2.74584031      -2.54390853E-36
   2.76984024       6.20772305E-37
   2.79384041       4.04753900E-36
   2.81784034       7.08294752E-36
   2.84184027       9.04363895E-36
   2.86584020       9.34863827E-36
   2.88984036       7.65514509E-36
   2.91384029       3.97122801E-36
   2.93784022      -1.28144426E-36
   2.96184039      -7.27670894E-36
   2.98584032      -1.28764013E-35
   3.00984025      -1.68032426E-35
   3.03384042      -1.78745252E-35
   3.05784035      -1.52612385E-35
   3.08184028      -8.72560474E-36
   3.10584021       1.21442830E-36
   3.12984037       1.32402019E-35
   3.15384030       2.53383633E-35
   3.17784023       3.50652892E-35
   3.20184040       3.99475598E-35
   3.22584033       3.79652189E-35
   3.24984026       2.80386053E-35
   3.27384043       1.04243196E-35
   3.29784036      -1.30736180E-35
   3.32184029      -3.91525801E-35
   3.34584022      -6.33585428E-35
   3.36984038      -8.07195440E-35
   3.39384031      -8.65960286E-35
   3.41784024      -7.76248600E-35
   3.44184041      -5.25941026E-35
   3.46584034      -1.30701943E-35
   3.48984027       3.63851088E-35
   3.51384020       8.85212851E-35
   3.53784037       1.34263243E-34
   3.56184030       1.64068625E-34
   3.58584023       1.69610197E-34
   3.60984039       1.45526178E-34
   3.63384032       9.09258943E-35
   3.65784025       1.03311482E-35
   3.68184042      -8.62150490E-35
   3.70584035      -1.84030896E-34
   3.72984028      -2.65672147E-34
   3.75384021      -3.13623431E-34
   3.77784038      -3.13448140E-34
   3.80184031      -2.56900364E-34
   3.82584023      -1.44430442E-34
   3.84984040       1.34629474E-35
   3.87384033       1.96459590E-34
   3.89784026       3.76429474E-34
   3.92184043       5.21148349E-34
   3.94584036       5.99319183E-34
   3.96984029       5.86208977E-34
   3.99384022       4.68999884E-34
   4.01784039       2.50869872E-34
   4.04184008      -4.71003511E-35
   4.06584024      -3.86845870E-34
   4.08984041      -7.17312459E-34
   4.11384010      -9.81274674E-34
   4.13784027      -1.12419826E-33
   4.16184044      -1.10390445E-33
   4.18584013      -8.99483502E-34
   4.20984030      -5.17824226E-34
   4.23384047       3.68198996E-36
   4.25784016       5.99239240E-34
   4.28184032       1.18182751E-33
   4.30584049       1.65491293E-33
   4.32984018       1.92729168E-33
   4.35384035       1.92895409E-33
   4.37784052       1.62542198E-33
   4.40184021       1.02794511E-33
   4.42584038       1.97320525E-34
   4.44984055      -7.60093933E-34
   4.47384024      -1.70446442E-33
   4.49784040      -2.48161918E-33
   4.52184010      -2.94688481E-33
   4.54584026      -2.99019131E-33
   4.56984043      -2.55839201E-33
   4.59384012      -1.67073214E-33
   4.61784029      -4.24062755E-34
   4.64184046       1.01428504E-33
   4.66584015       2.42623705E-33
   4.68984032       3.57351862E-33
   4.71384048       4.23518382E-33
   4.73784018       4.24669301E-33
   4.76184034       3.53421340E-33
   4.78584051       2.13784605E-33
   4.80984020       2.18595435E-34
   4.83384037      -1.95404648E-33
   4.85784054      -4.03417282E-33
   4.88184023      -5.64826542E-33
   4.90584040      -6.45468650E-33
   4.92984009      -6.20532888E-33
   4.95384026      -4.79951001E-33
   4.97784042      -2.32025687E-33
   5.00184011       9.55197985E-34
   5.02584028       4.57568192E-33
   5.04984045       7.96769540E-33
   5.07384014       1.05139447E-32
   5.09784031       1.16494392E-32
   5.12184048       1.09618250E-32
   5.14584017       8.28023437E-33
   5.16984034       3.73682160E-33
   5.19384050      -2.21246128E-33
   5.21784019      -8.81649489E-33
   5.24184036      -1.51088684E-32
   5.26584053      -2.00329217E-32
   5.28984022      -2.25979238E-32
   5.31384039      -2.20456031E-32
   5.33784008      -1.80020039E-32
   5.36184025      -1.05886738E-32
   5.38584042      -4.70380539E-34
   5.40984011       1.11764460E-32
   5.43384027       2.27798257E-32
   5.45784044       3.25655928E-32
   5.48184013       3.88075677E-32
   5.50584030       4.01025981E-32
   5.52984047       3.56304710E-32
   5.55384016       2.53559921E-32
   5.57784033       1.01340580E-32
   5.60184050      -8.31113885E-33
   5.62584019      -2.75456501E-32
   5.64984035      -4.47167161E-32
   5.67384052      -5.69462126E-32
   5.69784021      -6.17777882E-32
   5.72184038      -5.76143048E-32
   5.74584007      -4.40753664E-32
   5.76984024      -2.22085648E-32
   5.79384041       5.49763169E-33
   5.81784010       3.53266821E-32
   5.84184027       6.27677367E-32
   5.86584044       8.31301612E-32
   5.88984013       9.22649219E-32
   5.91384029       8.72926102E-32
   5.93784046       6.72239123E-32
   5.96184015       3.33608647E-32
   5.98584032      -1.06126400E-32
   6.00984049      -5.89050857E-32
   6.03384018      -1.04259825E-31
   6.05784035      -1.38911659E-31
   6.08184052      -1.55746983E-31
   6.10584021      -1.49511256E-31
   6.12984037      -1.17880301E-31
   6.15384054      -6.22103878E-32
   6.17784023       1.21903246E-32
   6.20184040       9.63711176E-32
   6.22584009       1.78652466E-31
   6.24984026       2.46076483E-31
   6.27384043       2.86234332E-31
   6.29784012       2.89232901E-31
   6.32184029       2.49513511E-31
   6.34584045       1.67224322E-31
   6.36984015       4.88828033E-32
   6.39384031      -9.28555725E-32
   6.41784048      -2.40388736E-31
   6.44184017      -3.73244353E-31
   6.46584034      -4.70821223E-31
   6.48984051      -5.15447267E-31
   6.51384020      -4.95320218E-31
   6.53784037      -4.06866666E-31
   6.56184053      -2.56096561E-31
   6.58584023      -5.86407171E-32
   6.60984039       1.61670640E-31
   6.63384008       3.75617606E-31
   6.65784025       5.52496169E-31
   6.68184042       6.64625870E-31
   6.70584011       6.91822530E-31
   6.72984028       6.25139322E-31
   6.75384045       4.69222879E-31
   6.77784014       2.42782630E-31
   6.80184031      -2.30855189E-32
   6.82584047      -2.88668240E-31
   6.84984016      -5.11111668E-31
   6.87384033      -6.50914339E-31
   6.89784050      -6.78515699E-31
   6.92184019      -5.79953319E-31
   6.94584036      -3.60606308E-31
   6.96984053      -4.62454847E-32
   6.99384022       3.19040663E-31
   7.01784039       6.78026693E-31
   7.04184008       9.68126803E-31
   7.06584024       1.13079707E-30
   7.08984041       1.12123786E-30
   7.11384010       9.16894904E-31
   7.13784027       5.23296795E-31
   7.16184044      -2.39549145E-32
   7.18584013      -6.61733448E-31
   7.20984030      -1.30651241E-30
   7.23384047      -1.86538465E-30
   7.25784016      -2.24960410E-30
   7.28184032      -2.38874088E-30
   7.30584049      -2.24325831E-30
   7.32984018      -1.81334824E-30
   7.35384035      -1.14225062E-30
   7.37784052      -3.12985363E-31
   7.40184021       5.61623130E-31
   7.42584038       1.35468050E-30
   7.44984055       1.94474500E-30
   7.47384024       2.23634810E-30
   7.49784040       2.17827209E-30
   7.52184010       1.77635835E-30
   7.54584026       1.09816243E-30
   7.56984043       2.67794258E-31
   7.59384012      -5.49311378E-31
   7.61784029      -1.17035227E-30
   7.64184046      -1.42494243E-30
   7.66584015      -1.18655462E-30
   7.68984032      -4.00702561E-31
   7.71384048       8.95098887E-31
   7.73784018       2.56383142E-30
   7.76184034       4.37668520E-30
   7.78584051       6.03665776E-30
   7.80984020       7.21630302E-30
   7.83384037       7.60547854E-30
   7.85784054       6.96289503E-30
   7.88184023       5.16397602E-30
   7.90584040       2.23722868E-30
   7.92984009      -1.61779263E-30
   7.95384026      -6.03584601E-30
   7.97784042      -1.05166232E-29
   8.00184059      -1.44789818E-29
   8.02584076      -1.73334357E-29
   8.04983997      -1.85642765E-29
   8.07384014      -1.78103561E-29
   8.09784031      -1.49326632E-29
   8.12184048      -1.00575507E-29
   8.14584064      -3.58696478E-30
   8.16983986       3.82900565E-30
   8.19384003       1.13568944E-29
   8.21784019       1.80761375E-29
   8.24184036       2.30959550E-29
   8.26584053       2.56780177E-29
   8.28984070       2.53479765E-29
   8.31383991       2.19790511E-29
   8.33784008       1.58336418E-29
   8.36184025       7.55371165E-30
   8.38584042      -1.90254720E-30
   8.40984058      -1.13727405E-29
   8.43384075      -1.96385421E-29
   8.45783997      -2.55915645E-29
   8.48184013      -2.83942590E-29
   8.50584030      -2.76123345E-29
   8.52984047      -2.32975457E-29
   8.55384064      -1.60055085E-29
   8.57783985      -6.74143264E-30
   8.60184002       3.16325379E-30
   8.62584019       1.22301253E-29
   8.64984035       1.90464285E-29
   8.67384052       2.24823026E-29
   8.69784069       2.18809234E-29
   8.72183990       1.71916135E-29
   8.74584007       9.02218433E-30
   8.76984024      -1.40309319E-30
   8.79384041      -1.23806443E-29
   8.81784058      -2.19467857E-29
   8.84184074      -2.81529189E-29
   8.86583996      -2.93606756E-29
   8.88984013      -2.45154782E-29
   8.91384029      -1.33573473E-29
   8.93784046       3.46616195E-30
   8.96184063       2.44079828E-29
   8.98583984       4.71577759E-29
   9.00984001       6.88956359E-29
   9.03384018       8.66348048E-29
   9.05784035       9.76104509E-29
   9.08184052       9.96623306E-29
   9.10584068       9.15571447E-29
   9.12983990       7.32019370E-29
   9.15384007       4.57130576E-29
   9.17784023       1.13244816E-29
   9.20184040      -2.68585165E-29
   9.22584057      -6.52313375E-29
   9.24984074      -1.00139004E-28
   9.27383995      -1.28339891E-28
   9.29784012      -1.47417214E-28
   9.32184029      -1.56076315E-28
   9.34584045      -1.54280338E-28
   9.36984062      -1.43199415E-28
   9.39383984      -1.24976579E-28
   9.41784000      -1.02341690E-28
   9.44184017      -7.81306987E-29
   9.46584034      -5.47852439E-29
   9.48984051      -3.39149944E-29
   9.51384068      -1.60002333E-29
   9.53783989      -2.94360524E-31
   9.56184006       1.50421162E-29
   9.58584023       3.25796388E-29
   9.60984039       5.50707209E-29
   9.63384056       8.47887227E-29
   9.65784073       1.22853579E-28
   9.68183994       1.68655719E-28
   9.70584011       2.19484465E-28
   9.72984028       2.70446642E-28
   9.75384045       3.14725818E-28
   9.77784061       3.44186985E-28
   9.80184078       3.50282023E-28
   9.82584000       3.25163780E-28
   9.84984016       2.62880049E-28
   9.87384033       1.60495927E-28
   9.89784050       1.89909316E-29
   9.92184067      -1.56204546E-28
   9.94583988      -3.55132719E-28
   9.96984005      -5.63737702E-28
   9.99384022      -7.64788033E-28
   10.0178404      -9.39217967E-28
   10.0418406      -1.06776224E-27
   10.0658407      -1.13271817E-27
   10.0898399      -1.11965449E-27
   10.1138401      -1.01888733E-27
   10.1378403      -8.26571576E-28
   10.1618404      -5.45299716E-28
   10.1858406      -1.84155604E-28
   10.2098408       2.41767475E-28
   10.2338400       7.12320068E-28
   10.2578402       1.20360790E-27
   10.2818403       1.68952108E-27
   10.3058405       2.14332718E-27
   10.3298407       2.53918571E-27
   10.3538399       2.85346493E-27
   10.3778400       3.06577887E-27
   10.4018402       3.15971167E-27
   10.4258404       3.12322763E-27
   10.4498405       2.94881676E-27
   10.4738407       2.63343437E-27
   10.4978399       2.17831921E-27
   10.5218401       1.58876297E-27
   10.5458403       8.73895527E-28
   10.5698404       4.65264591E-29
   10.5938406      -8.76938785E-28
   10.6178408      -1.87652156E-27
   10.6418400      -2.92865593E-27
   10.6658401      -4.00618581E-27
   10.6898403      -5.07842111E-27
   10.7138405      -6.11130890E-27
   10.7378407      -7.06775537E-27
   10.7618399      -7.90814337E-27
   10.7858400      -8.59106889E-27
   10.8098402      -9.07431090E-27
   10.8338404      -9.31604516E-27
   10.8578405      -9.27629781E-27
   10.8818407      -8.91863568E-27
   10.9058399      -8.21207284E-27
   10.9298401      -7.13314994E-27
   10.9538403      -5.66814664E-27
   10.9778404      -3.81533347E-27
   11.0018406      -1.58715867E-27
   11.0258408       9.87773742E-28
   11.0498400       3.86310000E-27
   11.0738401       6.97366599E-27
   11.0978403       1.02352653E-26
   11.1218405       1.35453349E-26
   11.1458406       1.67847876E-26
   11.1698399       1.98210578E-26
   11.1938400       2.25124540E-26
   11.2178402       2.47137102E-26
   11.2418404       2.62826267E-26
   11.2658405       2.70875052E-26
   11.2898407       2.70150070E-26
   11.3138399       2.59780031E-26
   11.3378401       2.39228294E-26
   11.3618402       2.08354066E-26
   11.3858404       1.67456666E-26
   11.4098406       1.17297700E-26
   11.4338408       5.90974300E-27
   11.4578400      -5.49702295E-28
   11.4818401      -7.44718129E-27
   11.5058403      -1.45532496E-26
   11.5298405      -2.16211567E-26
   11.5538406      -2.83990511E-26
   11.5778399      -3.46427188E-26
   11.6018400      -4.01278875E-26
   11.6258402      -4.46609780E-26
   11.6498404      -4.80874200E-26
   11.6738405      -5.02967174E-26
   11.6978407      -5.12237831E-26
   11.7218399      -5.08465258E-26
   11.7458401      -4.91799369E-26
   11.7698402      -4.62676135E-26
   11.7938404      -4.21717459E-26
   11.8178406      -3.69630884E-26
   11.8418407      -3.07124597E-26
   11.8658400      -2.34851903E-26
   11.8898401      -1.53397316E-26
   11.9138403      -6.33107291E-27
   11.9378405       3.48091808E-27
   11.9618406       1.40189149E-26
   11.9858398       2.51726378E-26
   12.0098400       3.67823962E-26
   12.0338402       4.86240303E-26
   12.0578403       6.03977978E-26
   12.0818405       7.17235293E-26
   12.1058407       8.21439998E-26
   12.1298399       9.11376489E-26
   12.1538401       9.81408725E-26
   12.1778402       1.02578998E-25
   12.2018404       1.03904013E-25
   12.2258406       1.01636328E-25
   12.2498407       9.54069641E-26
   12.2738400       8.49966009E-26
   12.2978401       7.03677486E-26
   12.3218403       5.16869400E-26
   12.3458405       2.93348405E-26
   12.3698406       3.90293902E-27
   12.3938398      -2.38229029E-26
   12.4178400      -5.28908311E-26
   12.4418402      -8.22209322E-26
   12.4658403      -1.10649698E-25
   12.4898405      -1.36977561E-25
   12.5138407      -1.60016071E-25
   12.5378399      -1.78631894E-25
   12.5618401      -1.91785546E-25
   12.5858402      -1.98563464E-25
   12.6098404      -1.98203546E-25
   12.6338406      -1.90114837E-25
   12.6578407      -1.73893379E-25
   12.6818399      -1.49335770E-25
   12.7058401      -1.16453077E-25
   12.7298403      -7.54867595E-26
   12.7538404      -2.69275143E-26
   12.7778406       2.84625329E-26
   12.8018408       8.96256737E-26
   12.8258400       1.55184656E-25
   12.8498402       2.23422418E-25
   12.8738403       2.92269884E-25
   12.8978405       3.59306593E-25
   12.9218407       4.21778978E-25
   12.9458399       4.76640704E-25
   12.9698400       5.20618862E-25
   12.9938402       5.50308036E-25
   13.0178404       5.62292411E-25
   13.0418406       5.53294959E-25