  -4.484800      0.0000000E+00
  -4.477800      0.0000000E+00
  -4.470800      0.0000000E+00
  -4.463800      0.0000000E+00
  -4.456800      0.0000000E+00
  -4.449800      0.0000000E+00
  -4.442800      0.0000000E+00
  -4.435800      0.0000000E+00
  -4.428800      0.0000000E+00
  -4.421800      0.0000000E+00
  -4.414800      0.0000000E+00
  -4.407800      0.0000000E+00
  -4.400800      0.0000000E+00
  -4.393800      0.0000000E+00
  -4.386800      0.0000000E+00
  -4.379800      0.0000000E+00
  -4.372800      0.0000000E+00
  -4.365800      0.0000000E+00
  -4.358800      0.0000000E+00
  -4.351800      0.0000000E+00
  -4.344800      0.0000000E+00
  -4.337800      0.0000000E+00
  -4.330800      0.0000000E+00
  -4.323800      0.0000000E+00
  -4.316800      0.0000000E+00
  -4.309800      0.0000000E+00
  -4.302800      0.0000000E+00
  -4.295800      0.0000000E+00
  -4.288800      0.0000000E+00
  -4.281800      0.0000000E+00
  -4.274800      0.0000000E+00
  -4.267800      0.0000000E+00
  -4.260800      0.0000000E+00
  -4.253800      0.0000000E+00
  -4.246800      0.0000000E+00
  -4.239800      0.0000000E+00
  -4.232800      0.0000000E+00
  -4.225800      0.0000000E+00
  -4.218800      0.0000000E+00
  -4.211800      0.0000000E+00
  -4.204800      0.0000000E+00
  -4.197800      0.0000000E+00
  -4.190800      0.0000000E+00
  -4.183800      0.0000000E+00
  -4.176800      0.0000000E+00
  -4.169800      0.0000000E+00
  -4.162800      0.0000000E+00
  -4.155800      0.0000000E+00
  -4.148800      0.0000000E+00
  -4.141800      0.0000000E+00
  -4.134800      0.0000000E+00
  -4.127800      0.0000000E+00
  -4.120800      0.0000000E+00
  -4.113800      0.0000000E+00
  -4.106800      0.0000000E+00
  -4.099800      0.0000000E+00
  -4.092800      0.0000000E+00
  -4.085800      0.0000000E+00
  -4.078800      0.0000000E+00
  -4.071800      0.0000000E+00
  -4.064800      0.0000000E+00
  -4.057800      0.0000000E+00
  -4.050800      0.0000000E+00
  -4.043800      0.0000000E+00
  -4.036800      0.0000000E+00
  -4.029800      0.0000000E+00
  -4.022800      0.0000000E+00
  -4.015800      0.0000000E+00
  -4.008800      0.0000000E+00
  -4.001800      0.0000000E+00
  -3.994800      0.0000000E+00
  -3.987800      0.0000000E+00
  -3.980800      0.0000000E+00
  -3.973800      0.0000000E+00
  -3.966800      0.0000000E+00
  -3.959800      0.0000000E+00
  -3.952800      0.0000000E+00
  -3.945800      0.0000000E+00
  -3.938800      0.0000000E+00
  -3.931800      0.0000000E+00
  -3.924800      0.0000000E+00
  -3.917800      0.0000000E+00
  -3.910800      0.0000000E+00
  -3.903800      0.0000000E+00
  -3.896800      0.0000000E+00
  -3.889800      0.0000000E+00
  -3.882800      0.0000000E+00
  -3.875800      0.0000000E+00
  -3.868800      0.0000000E+00
  -3.861800      0.0000000E+00
  -3.854800      0.0000000E+00
  -3.847800      0.0000000E+00
  -3.840800      0.0000000E+00
  -3.833800      0.0000000E+00
  -3.826800      0.0000000E+00
  -3.819800      0.0000000E+00
  -3.812800      0.0000000E+00
  -3.805800      0.0000000E+00
  -3.798800      0.0000000E+00
  -3.791800      0.0000000E+00
  -3.784800      0.0000000E+00
  -3.777800      0.0000000E+00
  -3.770800      0.0000000E+00
  -3.763800      0.0000000E+00
  -3.756800      0.0000000E+00
  -3.749800      0.0000000E+00
  -3.742800      0.0000000E+00
  -3.735800      0.0000000E+00
  -3.728800      0.0000000E+00
  -3.721800      0.0000000E+00
  -3.714800      0.0000000E+00
  -3.707800      0.0000000E+00
  -3.700800      0.0000000E+00
  -3.693800      0.0000000E+00
  -3.686800      0.0000000E+00
  -3.679800      0.0000000E+00
  -3.672800      0.0000000E+00
  -3.665800      0.0000000E+00
  -3.658800      0.0000000E+00
  -3.651800      0.0000000E+00
  -3.644800      0.0000000E+00
  -3.637800      0.0000000E+00
  -3.630800      0.0000000E+00
  -3.623800      0.0000000E+00
  -3.616800      0.0000000E+00
  -3.609800      0.0000000E+00
  -3.602800      0.0000000E+00
  -3.595800      0.0000000E+00
  -3.588800      0.0000000E+00
  -3.581800      0.0000000E+00
  -3.574800      0.0000000E+00
  -3.567800      0.0000000E+00
  -3.560800      0.0000000E+00
  -3.553800      0.0000000E+00
  -3.546800      0.0000000E+00
  -3.539800      0.0000000E+00
  -3.532800      0.0000000E+00
  -3.525800      0.0000000E+00
  -3.518800      0.0000000E+00
  -3.511800      0.0000000E+00
  -3.504800      0.0000000E+00
  -3.497800      0.0000000E+00
  -3.490800      0.0000000E+00
  -3.483800      0.0000000E+00
  -3.476800      0.0000000E+00
  -3.469800      0.0000000E+00
  -3.462800      0.0000000E+00
  -3.455800      0.0000000E+00
  -3.448800      0.0000000E+00
  -3.441800      0.0000000E+00
  -3.434800      0.0000000E+00
  -3.427800      0.0000000E+00
  -3.420800      0.0000000E+00
  -3.413800      0.0000000E+00
  -3.406800      0.0000000E+00
  -3.399800      0.0000000E+00
  -3.392800      0.0000000E+00
  -3.385800      0.0000000E+00
  -3.378800      0.0000000E+00
  -3.371800      0.0000000E+00
  -3.364800      0.0000000E+00
  -3.357800      0.0000000E+00
  -3.350800      0.0000000E+00
  -3.343800      0.0000000E+00
  -3.336800      0.0000000E+00
  -3.329800      0.0000000E+00
  -3.322800      0.0000000E+00
  -3.315800      0.0000000E+00
  -3.308800      0.0000000E+00
  -3.301800      0.0000000E+00
  -3.294800      0.0000000E+00
  -3.287800      0.0000000E+00
  -3.280800      0.0000000E+00
  -3.273800      0.0000000E+00
  -3.266800      0.0000000E+00
  -3.259800      0.0000000E+00
  -3.252800      0.0000000E+00
  -3.245800      0.0000000E+00
  -3.238800      0.0000000E+00
  -3.231800      0.0000000E+00
  -3.224800      0.0000000E+00
  -3.217800      0.0000000E+00
  -3.210800      0.0000000E+00
  -3.203800      0.0000000E+00
  -3.196800      0.0000000E+00
  -3.189800      0.0000000E+00
  -3.182800      0.0000000E+00
  -3.175800      0.0000000E+00
  -3.168800      0.0000000E+00
  -3.161800      0.0000000E+00
  -3.154800      0.0000000E+00
  -3.147800      0.0000000E+00
  -3.140800      0.0000000E+00
  -3.133800      0.0000000E+00
  -3.126800      0.0000000E+00
  -3.119800      0.0000000E+00
  -3.112800      0.0000000E+00
  -3.105800      0.0000000E+00
  -3.098800      0.0000000E+00
  -3.091800      0.0000000E+00
  -3.084800      0.0000000E+00
  -3.077800      0.0000000E+00
  -3.070800      0.0000000E+00
  -3.063800      0.0000000E+00
  -3.056800      0.0000000E+00
  -3.049800      0.0000000E+00
  -3.042800      0.0000000E+00
  -3.035800      0.0000000E+00
  -3.028800      0.0000000E+00
  -3.021800      0.0000000E+00
  -3.014800      0.0000000E+00
  -3.007800      0.0000000E+00
  -3.000800      0.0000000E+00
  -2.993800      0.0000000E+00
  -2.986800      0.0000000E+00
  -2.979800      0.0000000E+00
  -2.972800      0.0000000E+00
  -2.965800      0.0000000E+00
  -2.958800      0.0000000E+00
  -2.951800      0.0000000E+00
  -2.944800      0.0000000E+00
  -2.937800      0.0000000E+00
  -2.930800      0.0000000E+00
  -2.923800      0.0000000E+00
  -2.916800      0.0000000E+00
  -2.909800      0.0000000E+00
  -2.902800      0.0000000E+00
  -2.895800      0.0000000E+00
  -2.888800      0.0000000E+00
  -2.881800      0.0000000E+00
  -2.874800      0.0000000E+00
  -2.867800      0.0000000E+00
  -2.860800      0.0000000E+00
  -2.853800      0.0000000E+00
  -2.846800      0.0000000E+00
  -2.839800      0.0000000E+00
  -2.832800      0.0000000E+00
  -2.825800      0.0000000E+00
  -2.818800      0.0000000E+00
  -2.811800      0.0000000E+00
  -2.804800      0.0000000E+00
  -2.797800      0.0000000E+00
  -2.790800      0.0000000E+00
  -2.783800      0.0000000E+00
  -2.776800      0.0000000E+00
  -2.769800      0.0000000E+00
  -2.762800      0.0000000E+00
  -2.755800      0.0000000E+00
  -2.748800      0.0000000E+00
  -2.741800      0.0000000E+00
  -2.734800      0.0000000E+00
  -2.727800      0.0000000E+00
  -2.720800      0.0000000E+00
  -2.713800      0.0000000E+00
  -2.706800      0.0000000E+00
  -2.699800      0.0000000E+00
  -2.692800      0.0000000E+00
  -2.685800      0.0000000E+00
  -2.678800      0.0000000E+00
  -2.671800      0.0000000E+00
  -2.664800      0.0000000E+00
  -2.657800      0.0000000E+00
  -2.650800      0.0000000E+00
  -2.643800      0.0000000E+00
  -2.636800      0.0000000E+00
  -2.629800      0.0000000E+00
  -2.622800      0.0000000E+00
  -2.615800      0.0000000E+00
  -2.608800      0.0000000E+00
  -2.601800      0.0000000E+00
  -2.594800      0.0000000E+00
  -2.587800      0.0000000E+00
  -2.580800      0.0000000E+00
  -2.573800      0.0000000E+00
  -2.566800      0.0000000E+00
  -2.559800      0.0000000E+00
  -2.552800      0.0000000E+00
  -2.545800      0.0000000E+00
  -2.538800      0.0000000E+00
  -2.531800      0.0000000E+00
  -2.524800      0.0000000E+00
  -2.517800      0.0000000E+00
  -2.510800      0.0000000E+00
  -2.503800      0.0000000E+00
  -2.496800      0.0000000E+00
  -2.489800      0.0000000E+00
  -2.482800      0.0000000E+00
  -2.475800      0.0000000E+00
  -2.468800      0.0000000E+00
  -2.461800      0.0000000E+00
  -2.454800      0.0000000E+00
  -2.447800      0.0000000E+00
  -2.440800      0.0000000E+00
  -2.433800      0.0000000E+00
  -2.426800      0.0000000E+00
  -2.419800      0.0000000E+00
  -2.412800      0.0000000E+00
  -2.405800      0.0000000E+00
  -2.398800      0.0000000E+00
  -2.391800      0.0000000E+00
  -2.384800      0.0000000E+00
  -2.377800      0.0000000E+00
  -2.370800      0.0000000E+00
  -2.363800      0.0000000E+00
  -2.356800      0.0000000E+00
  -2.349800      0.0000000E+00
  -2.342800      0.0000000E+00
  -2.335800      0.0000000E+00
  -2.328800      0.0000000E+00
  -2.321800      0.0000000E+00
  -2.314800      0.0000000E+00
  -2.307800      0.0000000E+00
  -2.300800      0.0000000E+00
  -2.293800      0.0000000E+00
  -2.286800      0.0000000E+00
  -2.279800      0.0000000E+00
  -2.272800      0.0000000E+00
  -2.265800      0.0000000E+00
  -2.258800      0.0000000E+00
  -2.251800      0.0000000E+00
  -2.244800      0.0000000E+00
  -2.237800      0.0000000E+00
  -2.230800      0.0000000E+00
  -2.223800      0.0000000E+00
  -2.216800      0.0000000E+00
  -2.209800      0.0000000E+00
  -2.202800      0.0000000E+00
  -2.195800      0.0000000E+00
  -2.188800      0.0000000E+00
  -2.181800      0.0000000E+00
  -2.174800      0.0000000E+00
  -2.167800      0.0000000E+00
  -2.160800      0.0000000E+00
  -2.153800      0.0000000E+00
  -2.146800      0.0000000E+00
  -2.139800      0.0000000E+00
  -2.132800      0.0000000E+00
  -2.125800      0.0000000E+00
  -2.118800      0.0000000E+00
  -2.111800      0.0000000E+00
  -2.104800      0.0000000E+00
  -2.097800      0.0000000E+00
  -2.090800      0.0000000E+00
  -2.083800      0.0000000E+00
  -2.076800      0.0000000E+00
  -2.069800      0.0000000E+00
  -2.062800      0.0000000E+00
  -2.055800      0.0000000E+00
  -2.048800      0.0000000E+00
  -2.041800      0.0000000E+00
  -2.034800      0.0000000E+00
  -2.027800      0.0000000E+00
  -2.020800      0.0000000E+00
  -2.013800      0.0000000E+00
  -2.006800      0.0000000E+00
  -1.999800      0.0000000E+00
  -1.992800      0.0000000E+00
  -1.985800      0.0000000E+00
  -1.978800      0.0000000E+00
  -1.971800      0.0000000E+00
  -1.964800      0.0000000E+00
  -1.957800      0.0000000E+00
  -1.950800      0.0000000E+00
  -1.943800      0.0000000E+00
  -1.936800      0.0000000E+00
  -1.929800      0.0000000E+00
  -1.922800      0.0000000E+00
  -1.915800      0.0000000E+00
  -1.908800      0.0000000E+00
  -1.901800      0.0000000E+00
  -1.894800      0.0000000E+00
  -1.887800      0.0000000E+00
  -1.880800      0.0000000E+00
  -1.873800      0.0000000E+00
  -1.866800      0.0000000E+00
  -1.859800      0.0000000E+00
  -1.852800      0.0000000E+00
  -1.845800      0.0000000E+00
  -1.838800      0.0000000E+00
  -1.831800      0.0000000E+00
  -1.824800      0.0000000E+00
  -1.817800      0.0000000E+00
  -1.810800      0.0000000E+00
  -1.803800      0.0000000E+00
  -1.796800      0.0000000E+00
  -1.789800      0.0000000E+00
  -1.782800      0.0000000E+00
  -1.775800      0.0000000E+00
  -1.768800      0.0000000E+00
  -1.761800      0.0000000E+00
  -1.754800      0.0000000E+00
  -1.747800      0.0000000E+00
  -1.740800      0.0000000E+00
  -1.733800      0.0000000E+00
  -1.726800      0.0000000E+00
  -1.719800      0.0000000E+00
  -1.712800      0.0000000E+00
  -1.705800      0.0000000E+00
  -1.698800      0.0000000E+00
  -1.691800      0.0000000E+00
  -1.684800      0.0000000E+00
  -1.677800      0.0000000E+00
  -1.670800      0.0000000E+00
  -1.663800      0.0000000E+00
  -1.656800      0.0000000E+00
  -1.649800      0.0000000E+00
  -1.642800      0.0000000E+00
  -1.635800      0.0000000E+00
  -1.628800      0.0000000E+00
  -1.621800      0.0000000E+00
  -1.614800      0.0000000E+00
  -1.607800      0.0000000E+00
  -1.600800      0.0000000E+00
  -1.593800      0.0000000E+00
  -1.586800      0.0000000E+00
  -1.579800      0.0000000E+00
  -1.572800      0.0000000E+00
  -1.565800      0.0000000E+00
  -1.558800      0.0000000E+00
  -1.551800      0.0000000E+00
  -1.544800      0.0000000E+00
  -1.537800      0.0000000E+00
  -1.530800      0.0000000E+00
  -1.523800      0.0000000E+00
  -1.516800      0.0000000E+00
  -1.509800      0.0000000E+00
  -1.502800      0.0000000E+00
  -1.495800      0.0000000E+00
  -1.488800      0.0000000E+00
  -1.481800      0.0000000E+00
  -1.474800      0.0000000E+00
  -1.467800      0.0000000E+00
  -1.460800      0.0000000E+00
  -1.453800      0.0000000E+00
  -1.446800      0.0000000E+00
  -1.439800      0.0000000E+00
  -1.432800      0.0000000E+00
  -1.425800      0.0000000E+00
  -1.418800      0.0000000E+00
  -1.411800      0.0000000E+00
  -1.404800      0.0000000E+00
  -1.397800      0.0000000E+00
  -1.390800      0.0000000E+00
  -1.383800      0.0000000E+00
  -1.376800      0.0000000E+00
  -1.369800      0.0000000E+00
  -1.362800      0.0000000E+00
  -1.355800      0.0000000E+00
  -1.348800      0.0000000E+00
  -1.341800      0.0000000E+00
  -1.334800      0.0000000E+00
  -1.327800      0.0000000E+00
  -1.320800      0.0000000E+00
  -1.313800      0.0000000E+00
  -1.306800      0.0000000E+00
  -1.299800      0.0000000E+00
  -1.292800      0.0000000E+00
  -1.285800      0.0000000E+00
  -1.278800      0.0000000E+00
  -1.271800      0.0000000E+00
  -1.264800      0.0000000E+00
  -1.257800      0.0000000E+00
  -1.250800      0.0000000E+00
  -1.243800      0.0000000E+00
  -1.236800      0.0000000E+00
  -1.229800      0.0000000E+00
  -1.222800      0.0000000E+00
  -1.215800      0.0000000E+00
  -1.208800      0.0000000E+00
  -1.201800      0.0000000E+00
  -1.194800      0.0000000E+00
  -1.187800      0.0000000E+00
  -1.180800      0.0000000E+00
  -1.173800      0.0000000E+00
  -1.166800      0.0000000E+00
  -1.159800      0.0000000E+00
  -1.152800      0.0000000E+00
  -1.145800      0.0000000E+00
  -1.138800      0.0000000E+00
  -1.131800      0.0000000E+00
  -1.124800      0.0000000E+00
  -1.117800      0.0000000E+00
  -1.110800      0.0000000E+00
  -1.103800      0.0000000E+00
  -1.096800      0.0000000E+00
  -1.089800      0.0000000E+00
  -1.082800      0.0000000E+00
  -1.075800      0.0000000E+00
  -1.068800      0.0000000E+00
  -1.061800      0.0000000E+00
  -1.054800      0.0000000E+00
  -1.047800      0.0000000E+00
  -1.040800      0.0000000E+00
  -1.033800      0.0000000E+00
  -1.026800      0.0000000E+00
  -1.019800      0.0000000E+00
  -1.012800      0.0000000E+00
  -1.005800      0.0000000E+00
 -0.9988000      0.0000000E+00
 -0.9918000      0.0000000E+00
 -0.9848000      0.0000000E+00
 -0.9778000      0.0000000E+00
 -0.9708000      0.0000000E+00
 -0.9638000      0.0000000E+00
 -0.9568000      0.0000000E+00
 -0.9498000      0.0000000E+00
 -0.9428000      0.0000000E+00
 -0.9358000      0.0000000E+00
 -0.9288000      0.0000000E+00
 -0.9218000      0.0000000E+00
 -0.9148000      0.0000000E+00
 -0.9078000      0.0000000E+00
 -0.9008000      0.0000000E+00
 -0.8938000      0.0000000E+00
 -0.8868000      0.0000000E+00
 -0.8798000      0.0000000E+00
 -0.8728000      0.0000000E+00
 -0.8658000      0.0000000E+00
 -0.8588000      0.0000000E+00
 -0.8518000      0.0000000E+00
 -0.8448000      0.0000000E+00
 -0.8378000      0.0000000E+00
 -0.8308000      0.0000000E+00
 -0.8238000      0.0000000E+00
 -0.8168000      0.0000000E+00
 -0.8098000      0.0000000E+00
 -0.8028000      0.0000000E+00
 -0.7958000      0.0000000E+00
 -0.7888000      0.0000000E+00
 -0.7818000      0.0000000E+00
 -0.7748000      0.0000000E+00
 -0.7678000      0.0000000E+00
 -0.7608000      0.0000000E+00
 -0.7538000      0.0000000E+00
 -0.7468000      0.0000000E+00
 -0.7398000      0.0000000E+00
 -0.7328000      0.0000000E+00
 -0.7258000      0.0000000E+00
 -0.7188000      0.0000000E+00
 -0.7118000      0.0000000E+00
 -0.7048000      0.0000000E+00
 -0.6978000      0.0000000E+00
 -0.6908000      0.0000000E+00
 -0.6838000      0.0000000E+00
 -0.6768000      0.0000000E+00
 -0.6698000      0.0000000E+00
 -0.6628000      0.0000000E+00
 -0.6558000      0.0000000E+00
 -0.6488000      0.0000000E+00
 -0.6418000      0.0000000E+00
 -0.6348000      0.0000000E+00
 -0.6278000      0.0000000E+00
 -0.6208000      0.0000000E+00
 -0.6138000      0.0000000E+00
 -0.6068000      0.0000000E+00
 -0.5998000      0.0000000E+00
 -0.5928000      0.0000000E+00
 -0.5858000      0.0000000E+00
 -0.5788000      0.0000000E+00
 -0.5718000      0.0000000E+00
 -0.5648000      0.0000000E+00
 -0.5578000      0.0000000E+00
 -0.5508000     -1.4012985E-45
 -0.5438000     -1.4012985E-45
 -0.5368000     -1.4012985E-45
 -0.5298000     -1.4012985E-45
 -0.5228000     -1.4012985E-45
 -0.5158000      0.0000000E+00
 -0.5088000      2.8025969E-45
 -0.5018000      2.8025969E-45
 -0.4948000      4.2038954E-45
 -0.4878000      4.2038954E-45
 -0.4808000      4.2038954E-45
 -0.4738000      5.6051939E-45
 -0.4668000      5.6051939E-45
 -0.4598000      5.6051939E-45
 -0.4528000      5.6051939E-45
 -0.4458000      4.2038954E-45
 -0.4388000      4.2038954E-45
 -0.4318000      2.8025969E-45
 -0.4248000      1.4012985E-45
 -0.4178000      0.0000000E+00
 -0.4108000     -1.4012985E-45
 -0.4038000     -1.4012985E-45
 -0.3968000     -1.4012985E-45
 -0.3898000     -1.4012985E-45
 -0.3828000     -1.4012985E-45
 -0.3758000      0.0000000E+00
 -0.3688000      1.4012985E-45
 -0.3618000      1.4012985E-45
 -0.3548000      2.8025969E-45
 -0.3478000      4.2038954E-45
 -0.3408000      8.4077908E-45
 -0.3338000      8.4077908E-45
 -0.3268000      8.4077908E-45
 -0.3198000      8.4077908E-45
 -0.3128000      8.4077908E-45
 -0.3058000      7.0064923E-45
 -0.2988000      4.2038954E-45
 -0.2918000      0.0000000E+00
 -0.2848000     -4.2038954E-45
 -0.2778000     -8.4077908E-45
 -0.2708000     -1.1210388E-44
 -0.2638000     -1.2611686E-44
 -0.2568000     -1.1210388E-44
 -0.2498000     -1.1210388E-44
 -0.2428000     -7.0064923E-45
 -0.2358000     -7.0064923E-45
 -0.2288000     -7.0064923E-45
 -0.2218000     -1.4012985E-45
 -0.2148000      4.2038954E-45
 -0.2078000      1.4012985E-44
 -0.2008000      2.2420775E-44
 -0.1938000      3.2229865E-44
 -0.1868000      2.9427268E-44
 -0.1798000      3.5032462E-44
 -0.1728000      2.8025969E-44
 -0.1658000      3.2229865E-44
 -0.1588000      2.8025969E-44
 -0.1518000      1.5414283E-44
 -0.1448000      2.8025969E-45
 -0.1378000     -4.2038954E-45
 -0.1308000     -2.5223372E-44
 -0.1238000     -3.7835059E-44
 -0.1168000     -5.4650640E-44
 -0.1098000     -6.8663625E-44
 -0.1028000     -8.4077908E-44
 -9.5799997E-02 -9.8090893E-44
 -8.8799998E-02 -1.1210388E-43
 -8.1799999E-02 -1.0789998E-43
 -7.4800000E-02 -1.0930128E-43
 -6.7800000E-02 -1.0509738E-43
 -6.0800001E-02 -8.4077908E-44
 -5.3800002E-02 -5.1848043E-44
 -4.6799999E-02 -2.8025969E-44
 -3.9799999E-02  1.2611686E-44
 -3.2800000E-02  4.7644148E-44
 -2.5800001E-02  9.3886997E-44
 -1.8800000E-02  1.4293244E-43
 -1.1800000E-02  1.8637270E-43
 -4.8000002E-03  2.2981295E-43
  2.2000000E-03  2.6204281E-43
  9.2000002E-03  2.7605580E-43
  1.6200000E-02  2.9287138E-43
  2.3200000E-02  2.9147008E-43
  3.0200001E-02  2.7465450E-43
  3.7200000E-02  2.3822074E-43
  4.4199999E-02  1.9337919E-43
  5.1199999E-02  1.2471556E-43
  5.8200002E-02  3.5032462E-44
  6.5200001E-02 -5.7453237E-44
  7.2200000E-02 -1.5834673E-43
  7.9200000E-02 -2.9147008E-43
  8.6199999E-02 -4.4841551E-43
  9.3199998E-02 -5.9835444E-43
  0.1002000     -7.3988559E-43
  0.1072000     -8.7300894E-43
  0.1142000     -9.7250113E-43
  0.1212000     -1.0411648E-42
  0.1282000     -1.0481713E-42
  0.1352000     -9.9912581E-43
  0.1422000     -8.7441024E-43
  0.1492000     -6.6841937E-43
  0.1562000     -3.6013371E-43
  0.1632000      6.4459729E-44
  0.1702000      5.4090121E-43
  0.1772000      1.1406569E-42
  0.1842000      1.7978659E-42
  0.1912000      2.4943113E-42
  0.1982000      3.1655332E-42
  0.2052000      3.8395578E-42
  0.2122000      4.6354953E-42
  0.2192000      5.7663432E-42
  0.2262000      7.1242014E-42
  0.2332000      8.4330142E-42
  0.2402000      9.5456451E-42
  0.2472000      1.0467700E-41
  0.2542000      1.1150132E-41
  0.2612000      1.1632179E-41
  0.2682000      1.1772308E-41
  0.2752000      1.1200579E-41
  0.2822000      9.5792763E-42
  0.2892000      6.7738768E-42
  0.2962000      2.9847657E-42
  0.3032000     -1.6857621E-42
  0.3102000     -7.3638234E-42
  0.3172000     -1.3790178E-41
  0.3242000     -2.0586476E-41
  0.3312000     -2.7131941E-41
  0.3382000     -3.2959941E-41
  0.3452000     -3.7659896E-41
  0.3522000     -4.0725937E-41
  0.3592000     -4.1814746E-41
  0.3662000     -4.0568992E-41
  0.3732000     -3.6870965E-41
  0.3802000     -3.0673022E-41
  0.3872000     -2.2304468E-41
  0.3942000     -1.1752690E-41
  0.4012000      4.5962590E-43
  0.4082000      1.3788777E-41
  0.4152000      2.7580356E-41
  0.4222000      4.1034223E-41
  0.4292000      5.3332018E-41
  0.4362000      6.4082780E-41
  0.4432000      7.2522801E-41
  0.4502000      7.8014489E-41
  0.4572000      8.0178094E-41
  0.4642000      7.8656284E-41
  0.4712000      7.3217845E-41
  0.4782000      6.4077175E-41
  0.4852000      5.0941403E-41
  0.4922000      3.4198689E-41
  0.4992000      1.4223179E-41
  0.5062000     -8.4021856E-42
  0.5132000     -3.2945928E-41
  0.5202000     -5.8577078E-41
  0.5272000     -8.4339951E-41
  0.5342000     -1.0915134E-40
  0.5412000     -1.3187480E-40
  0.5482000     -1.5141590E-40
  0.5552000     -1.6660318E-40
  0.5622000     -1.7624831E-40
  0.5692000     -1.7934518E-40
  0.5762000     -1.7496192E-40
  0.5832000     -1.6230680E-40
  0.5902000     -1.4106732E-40
  0.5972000     -1.1090296E-40
  0.6042000     -7.2004320E-41
  0.6112000     -2.5003368E-41
  0.6182000      2.9103568E-41
  0.6252000      8.8713403E-41
  0.6322000      1.5173680E-40
  0.6392000      2.1570888E-40
  0.6462000      2.7777799E-40
  0.6532000      3.3470154E-40
  0.6602000      3.8321589E-40
  0.6672000      4.1989908E-40
  0.6742000      4.4153373E-40
  0.6812000      4.4521915E-40
  0.6882000      4.2847783E-40
  0.6952000      3.8963244E-40
  0.7022000      3.2799352E-40
  0.7092000      2.4350363E-40
  0.7162000      1.3741273E-40
  0.7232000      1.2166073E-41
  0.7302000     -1.2856773E-40
  0.7372000     -2.7998504E-40
  0.7442000     -4.3618918E-40
  0.7512000     -5.9037545E-40
  0.7582000     -7.3509875E-40
  0.7652000     -8.6256366E-40
  0.7722000     -9.6484304E-40
  0.7792000     -1.0343881E-39
  0.7862000     -1.0643464E-39
  0.7932000     -1.0489111E-39
  0.8002000     -9.8381662E-40
  0.8072000     -8.6658539E-40
  0.8142000     -6.9688675E-40
  0.8212000     -4.7677919E-40
  0.8282000     -2.1081835E-40
  0.8352000      9.3844958E-41
  0.8422000      4.2756839E-40
  0.8492000      7.7834703E-40
  0.8562000      1.1321497E-39
  0.8632000      1.4733196E-39
  0.8702000      1.7851127E-39
  0.8772000      2.0503617E-39
  0.8842000      2.2521529E-39
  0.8912000      2.3746348E-39
  0.8982000      2.4038448E-39
  0.9052000      2.3285307E-39
  0.9122000      2.1409711E-39
  0.9192000      1.8376852E-39
  0.9262000      1.4200464E-39
  0.9332000      8.9471646E-40
  0.9402000      2.7396926E-40
  0.9472000     -4.2429636E-40
  0.9542000     -1.1767810E-39
  0.9612000     -1.9551659E-39
  0.9682000     -2.7270123E-39
  0.9752000     -3.4566810E-39
  0.9822000     -4.1066775E-39
  0.9892000     -4.6391611E-39
  0.9962000     -5.0176700E-39
   1.003200     -5.2090202E-39
   1.010200     -5.1851308E-39
   1.017200     -4.9248915E-39
   1.024200     -4.4160464E-39
   1.031200     -3.6565482E-39
   1.038200     -2.6559707E-39
   1.045200     -1.4361698E-39
   1.052200     -3.1670747E-41
   1.059200      1.5105535E-39
   1.066200      3.1321039E-39
   1.073200      4.7645339E-39
   1.080200      6.3316102E-39
   1.087200      7.7520812E-39
   1.094200      8.9430840E-39
   1.101200      9.8239192E-39
   1.108200      1.0320239E-38
   1.115200      1.0368352E-38
   1.122200      9.9194569E-39
   1.129200      8.9437174E-39
   1.136200      7.4338477E-39
   1.143200      5.4079415E-39
   1.150200      2.9114974E-39
   1.157200      1.8197262E-41
   1.164200     -3.1704055E-39
   1.171200     -6.5268124E-39
   1.178200     -9.9008505E-39
   1.185200     -1.3124459E-38
   1.192200     -1.6017883E-38
   1.199200     -1.8397240E-38
   1.206200     -2.0083079E-38
   1.213200     -2.0909719E-38
   1.220200     -2.0735048E-38
   1.227200     -1.9450292E-38
   1.234200     -1.6989299E-38
   1.241200     -1.3336791E-38
   1.248200     -8.5351660E-39
   1.255200     -2.6891786E-39
   1.262200      4.0317080E-39
   1.269200      1.1394063E-38
   1.276200      1.9104318E-38
   1.283200      2.6815996E-38
   1.290200      3.4140479E-38
   1.297200      4.0661024E-38
   1.304200      4.5949978E-38
   1.311200      4.9588365E-38
   1.318200      5.1187735E-38
   1.325200      5.0412895E-38
   1.332200      4.7004847E-38
   1.339200      4.0802964E-38
   1.346200      3.1764908E-38
   1.353200      1.9983231E-38
   1.360200      5.6974007E-39
   1.367200     -1.0699693E-38
   1.374200     -2.8662178E-38
   1.381200     -4.7498867E-38
   1.388200     -6.6389228E-38
   1.395200     -8.4407499E-38
   1.402200     -1.0055486E-37
   1.409200     -1.1379937E-37
   1.416200     -1.2312238E-37
   1.423200     -1.2757009E-37
   1.430200     -1.2630877E-37
   1.437200     -1.1868068E-37
   1.444200     -1.0425898E-37
   1.451200     -8.2898211E-38
   1.458200     -5.4777654E-38
   1.465200     -2.0434703E-38
   1.472200      1.9214825E-38
   1.479200      6.2872148E-38
   1.486200      1.0886839E-37
   1.493200      1.5519748E-37
   1.500200      1.9956887E-37
   1.507200      2.3948123E-37
   1.514200      2.7231581E-37
   1.521200      2.9544728E-37
   1.528200      3.0637034E-37
   1.535200      3.0283670E-37
   1.542200      2.8299857E-37
   1.549200      2.4555235E-37
   1.556200      1.8987626E-37
   1.563200      1.1615376E-37
   1.570200      2.5477262E-38
   1.577200     -8.0077576E-38
   1.584200     -1.9741224E-37
   1.591200     -3.2240797E-37
   1.598200     -4.4997519E-37
   1.605200     -5.7415476E-37
   1.612200     -6.8827153E-37
   1.619200     -7.8514273E-37
   1.626200     -8.5733655E-37
   1.633200     -8.9747709E-37
   1.640200     -8.9859060E-37
   1.647200     -8.5447763E-37
   1.654200     -7.6010617E-37
   1.661200     -6.1200260E-37
   1.668200     -4.0863217E-37
   1.675200     -1.5074381E-37
   1.682200      1.5833518E-37
   1.689200      5.1247557E-37
   1.696200      9.0261253E-37
   1.703200      1.3167188E-36
   1.710200      1.7398992E-36
   1.717200      2.1546191E-36
   1.724200      2.5410742E-36
   1.731200      2.8777062E-36
   1.738200      3.1418566E-36
   1.745200      3.3105606E-36
   1.752200      3.3614522E-36
   1.759200      3.2737729E-36
   1.766200      3.0294464E-36
   1.773200      2.6141903E-36
   1.780200      2.0186210E-36
   1.787200      1.2393154E-36
   1.794200      2.7977229E-37
   1.801200     -8.4877128E-37
   1.808200     -2.1267162E-36
   1.815200     -3.5257236E-36
   1.822200     -5.0086290E-36
   1.829200     -6.5296774E-36
   1.836200     -8.0351274E-36
   1.843200     -9.4642326E-36
   1.850200     -1.0750616E-35
   1.857200     -1.1824039E-35
   1.864200     -1.2612538E-35
   1.871200     -1.3044902E-35
   1.878200     -1.3053434E-35
   1.885200     -1.2576952E-35
   1.892200     -1.1563903E-35
   1.899200     -9.9755518E-36
   1.906200     -7.7890707E-36
   1.913200     -5.0004707E-36
   1.920200     -1.6271906E-36
   1.927200      2.2897481E-36
   1.934200      6.6841806E-36
   1.941200      1.1463939E-35
   1.948200      1.6510840E-35
   1.955200      2.1681602E-35
   1.962200      2.6809766E-35
   1.969200      3.1708736E-35
   1.976200      3.6175908E-35
   1.983200      3.9997883E-35
   1.990200      4.2956777E-35
   1.997200      4.4837522E-35
   2.004200      4.5435925E-35
   2.011200      4.4567522E-35
   2.018200      4.2076777E-35
   2.025200      3.7846493E-35
   2.032200      3.1807132E-35
   2.039200      2.3945642E-35
   2.046200      1.4313437E-35
   2.053200      3.0331489E-36
   2.060200     -9.6962198E-36
   2.067200     -2.3596248E-35
   2.074200     -3.8308420E-35
   2.081200     -5.3396309E-35
   2.088200     -6.8350766E-35
   2.095200     -8.2598682E-35
   2.102200     -9.5515075E-35
   2.109200     -1.0643891E-34
   2.116200     -1.1469274E-34
   2.123200     -1.1960543E-34
   2.130200     -1.2053837E-34
   2.137200     -1.1691432E-34
   2.144200     -1.0824847E-34
   2.151200     -9.4180699E-35
   2.158200     -7.4508503E-35
   2.165200     -4.9219102E-35
   2.172200     -1.8519845E-35
   2.179200      1.7134759E-35
   2.186200      5.7020619E-35
   2.193200      1.0012791E-34
   2.200200      1.4515268E-34
   2.207200      1.9049776E-34
   2.214200      2.3428461E-34
   2.221200      2.7437691E-34
   2.228200      3.0841820E-34
   2.235200      3.3388232E-34
   2.242200      3.4813996E-34
   2.249200      3.4853867E-34
   2.256200      3.3249771E-34
   2.263200      2.9761595E-34
   2.270200      2.4179157E-34
   2.277200      1.6335087E-34