  -4.484800      0.0000000E+00
  -4.477800      0.0000000E+00
  -4.470800      0.0000000E+00
  -4.463800      0.0000000E+00
  -4.456800      0.0000000E+00
  -4.449800      0.0000000E+00
  -4.442800      0.0000000E+00
  -4.435800      0.0000000E+00
  -4.428800      0.0000000E+00
  -4.421800      0.0000000E+00
  -4.414800      0.0000000E+00
  -4.407800      0.0000000E+00
  -4.400800      0.0000000E+00
  -4.393800      0.0000000E+00
  -4.386800      0.0000000E+00
  -4.379800      0.0000000E+00
  -4.372800      0.0000000E+00
  -4.365800      0.0000000E+00
  -4.358800      0.0000000E+00
  -4.351800      0.0000000E+00
  -4.344800      0.0000000E+00
  -4.337800      0.0000000E+00
  -4.330800      0.0000000E+00
  -4.323800      0.0000000E+00
  -4.316800      0.0000000E+00
  -4.309800      0.0000000E+00
  -4.302800      0.0000000E+00
  -4.295800      0.0000000E+00
  -4.288800      0.0000000E+00
  -4.281800      0.0000000E+00
  -4.274800      0.0000000E+00
  -4.267800      0.0000000E+00
  -4.260800      0.0000000E+00
  -4.253800      0.0000000E+00
  -4.246800      0.0000000E+00
  -4.239800      0.0000000E+00
  -4.232800      0.0000000E+00
  -4.225800      0.0000000E+00
  -4.218800      0.0000000E+00
  -4.211800      0.0000000E+00
  -4.204800      0.0000000E+00
  -4.197800      0.0000000E+00
  -4.190800      0.0000000E+00
  -4.183800      0.0000000E+00
  -4.176800      0.0000000E+00
  -4.169800      0.0000000E+00
  -4.162800      0.0000000E+00
  -4.155800      0.0000000E+00
  -4.148800      0.0000000E+00
  -4.141800      0.0000000E+00
  -4.134800      0.0000000E+00
  -4.127800      0.0000000E+00
  -4.120800      0.0000000E+00
  -4.113800      0.0000000E+00
  -4.106800      0.0000000E+00
  -4.099800      0.0000000E+00
  -4.092800      0.0000000E+00
  -4.085800      0.0000000E+00
  -4.078800      0.0000000E+00
  -4.071800      0.0000000E+00
  -4.064800      0.0000000E+00
  -4.057800      0.0000000E+00
  -4.050800      0.0000000E+00
  -4.043800      0.0000000E+00
  -4.036800      0.0000000E+00
  -4.029800      0.0000000E+00
  -4.022800      0.0000000E+00
  -4.015800      0.0000000E+00
  -4.008800      0.0000000E+00
  -4.001800      0.0000000E+00
  -3.994800      0.0000000E+00
  -3.987800      0.0000000E+00
  -3.980800      0.0000000E+00
  -3.973800      0.0000000E+00
  -3.966800      0.0000000E+00
  -3.959800      0.0000000E+00
  -3.952800      0.0000000E+00
  -3.945800      0.0000000E+00
  -3.938800      0.0000000E+00
  -3.931800      0.0000000E+00
  -3.924800      0.0000000E+00
  -3.917800      0.0000000E+00
  -3.910800      0.0000000E+00
  -3.903800      0.0000000E+00
  -3.896800      0.0000000E+00
  -3.889800      0.0000000E+00
  -3.882800      0.0000000E+00
  -3.875800      0.0000000E+00
  -3.868800      0.0000000E+00
  -3.861800      0.0000000E+00
  -3.854800      0.0000000E+00
  -3.847800      0.0000000E+00
  -3.840800      0.0000000E+00
  -3.833800      0.0000000E+00
  -3.826800      0.0000000E+00
  -3.819800      0.0000000E+00
  -3.812800      0.0000000E+00
  -3.805800      0.0000000E+00
  -3.798800      0.0000000E+00
  -3.791800      0.0000000E+00
  -3.784800      0.0000000E+00
  -3.777800      0.0000000E+00
  -3.770800      0.0000000E+00
  -3.763800      0.0000000E+00
  -3.756800      0.0000000E+00
  -3.749800      0.0000000E+00
  -3.742800      0.0000000E+00
  -3.735800      0.0000000E+00
  -3.728800      0.0000000E+00
  -3.721800      0.0000000E+00
  -3.714800      0.0000000E+00
  -3.707800      0.0000000E+00
  -3.700800      0.0000000E+00
  -3.693800      0.0000000E+00
  -3.686800      0.0000000E+00
  -3.679800      0.0000000E+00
  -3.672800      0.0000000E+00
  -3.665800      0.0000000E+00
  -3.658800      0.0000000E+00
  -3.651800      0.0000000E+00
  -3.644800      0.0000000E+00
  -3.637800      0.0000000E+00
  -3.630800      0.0000000E+00
  -3.623800      0.0000000E+00
  -3.616800      0.0000000E+00
  -3.609800      0.0000000E+00
  -3.602800      0.0000000E+00
  -3.595800      0.0000000E+00
  -3.588800      0.0000000E+00
  -3.581800      0.0000000E+00
  -3.574800      0.0000000E+00
  -3.567800      0.0000000E+00
  -3.560800      0.0000000E+00
  -3.553800      0.0000000E+00
  -3.546800      0.0000000E+00
  -3.539800      0.0000000E+00
  -3.532800      0.0000000E+00
  -3.525800      0.0000000E+00
  -3.518800      0.0000000E+00
  -3.511800      0.0000000E+00
  -3.504800      0.0000000E+00
  -3.497800      0.0000000E+00
  -3.490800      0.0000000E+00
  -3.483800      0.0000000E+00
  -3.476800      0.0000000E+00
  -3.469800      0.0000000E+00
  -3.462800      0.0000000E+00
  -3.455800      0.0000000E+00
  -3.448800      0.0000000E+00
  -3.441800      0.0000000E+00
  -3.434800      0.0000000E+00
  -3.427800      0.0000000E+00
  -3.420800      0.0000000E+00
  -3.413800      0.0000000E+00
  -3.406800      0.0000000E+00
  -3.399800      0.0000000E+00
  -3.392800      0.0000000E+00
  -3.385800      0.0000000E+00
  -3.378800      0.0000000E+00
  -3.371800      0.0000000E+00
  -3.364800      0.0000000E+00
  -3.357800      0.0000000E+00
  -3.350800      0.0000000E+00
  -3.343800      0.0000000E+00
  -3.336800      0.0000000E+00
  -3.329800      0.0000000E+00
  -3.322800      0.0000000E+00
  -3.315800      0.0000000E+00
  -3.308800      0.0000000E+00
  -3.301800      0.0000000E+00
  -3.294800      0.0000000E+00
  -3.287800      0.0000000E+00
  -3.280800      0.0000000E+00
  -3.273800      0.0000000E+00
  -3.266800      0.0000000E+00
  -3.259800      0.0000000E+00
  -3.252800      0.0000000E+00
  -3.245800      0.0000000E+00
  -3.238800      0.0000000E+00
  -3.231800      0.0000000E+00
  -3.224800      0.0000000E+00
  -3.217800      0.0000000E+00
  -3.210800      0.0000000E+00
  -3.203800      0.0000000E+00
  -3.196800      0.0000000E+00
  -3.189800      0.0000000E+00
  -3.182800      0.0000000E+00
  -3.175800      0.0000000E+00
  -3.168800      0.0000000E+00
  -3.161800      0.0000000E+00
  -3.154800      0.0000000E+00
  -3.147800      0.0000000E+00
  -3.140800      0.0000000E+00
  -3.133800      0.0000000E+00
  -3.126800      0.0000000E+00
  -3.119800      0.0000000E+00
  -3.112800      0.0000000E+00
  -3.105800      0.0000000E+00
  -3.098800      0.0000000E+00
  -3.091800      0.0000000E+00
  -3.084800      0.0000000E+00
  -3.077800      0.0000000E+00
  -3.070800      0.0000000E+00
  -3.063800      0.0000000E+00
  -3.056800      0.0000000E+00
  -3.049800      0.0000000E+00
  -3.042800      0.0000000E+00
  -3.035800      0.0000000E+00
  -3.028800      0.0000000E+00
  -3.021800      0.0000000E+00
  -3.014800      0.0000000E+00
  -3.007800      0.0000000E+00
  -3.000800      0.0000000E+00
  -2.993800      0.0000000E+00
  -2.986800      0.0000000E+00
  -2.979800      0.0000000E+00
  -2.972800      0.0000000E+00
  -2.965800      0.0000000E+00
  -2.958800      0.0000000E+00
  -2.951800      0.0000000E+00
  -2.944800      0.0000000E+00
  -2.937800      0.0000000E+00
  -2.930800      0.0000000E+00
  -2.923800      0.0000000E+00
  -2.916800      0.0000000E+00
  -2.909800      0.0000000E+00
  -2.902800      0.0000000E+00
  -2.895800      0.0000000E+00
  -2.888800      0.0000000E+00
  -2.881800      0.0000000E+00
  -2.874800      0.0000000E+00
  -2.867800      0.0000000E+00
  -2.860800      0.0000000E+00
  -2.853800      0.0000000E+00
  -2.846800      0.0000000E+00
  -2.839800      0.0000000E+00
  -2.832800      0.0000000E+00
  -2.825800      0.0000000E+00
  -2.818800      0.0000000E+00
  -2.811800      0.0000000E+00
  -2.804800      0.0000000E+00
  -2.797800      0.0000000E+00
  -2.790800      0.0000000E+00
  -2.783800      0.0000000E+00
  -2.776800      0.0000000E+00
  -2.769800      0.0000000E+00
  -2.762800      0.0000000E+00
  -2.755800      0.0000000E+00
  -2.748800      0.0000000E+00
  -2.741800      0.0000000E+00
  -2.734800      0.0000000E+00
  -2.727800      0.0000000E+00
  -2.720800      0.0000000E+00
  -2.713800      0.0000000E+00
  -2.706800      0.0000000E+00
  -2.699800      0.0000000E+00
  -2.692800      0.0000000E+00
  -2.685800      0.0000000E+00
  -2.678800      0.0000000E+00
  -2.671800      0.0000000E+00
  -2.664800      0.0000000E+00
  -2.657800      0.0000000E+00
  -2.650800      0.0000000E+00
  -2.643800      0.0000000E+00
  -2.636800      0.0000000E+00
  -2.629800      0.0000000E+00
  -2.622800      0.0000000E+00
  -2.615800      0.0000000E+00
  -2.608800      0.0000000E+00
  -2.601800      0.0000000E+00
  -2.594800      0.0000000E+00
  -2.587800      0.0000000E+00
  -2.580800      0.0000000E+00
  -2.573800      0.0000000E+00
  -2.566800      0.0000000E+00
  -2.559800      0.0000000E+00
  -2.552800      0.0000000E+00
  -2.545800      0.0000000E+00
  -2.538800      0.0000000E+00
  -2.531800      0.0000000E+00
  -2.524800      0.0000000E+00
  -2.517800      0.0000000E+00
  -2.510800      0.0000000E+00
  -2.503800      0.0000000E+00
  -2.496800      0.0000000E+00
  -2.489800      0.0000000E+00
  -2.482800      0.0000000E+00
  -2.475800      0.0000000E+00
  -2.468800      0.0000000E+00
  -2.461800      0.0000000E+00
  -2.454800      0.0000000E+00
  -2.447800      0.0000000E+00
  -2.440800      0.0000000E+00
  -2.433800      0.0000000E+00
  -2.426800      0.0000000E+00
  -2.419800      0.0000000E+00
  -2.412800      0.0000000E+00
  -2.405800      0.0000000E+00
  -2.398800      0.0000000E+00
  -2.391800      0.0000000E+00
  -2.384800      0.0000000E+00
  -2.377800      0.0000000E+00
  -2.370800      0.0000000E+00
  -2.363800      0.0000000E+00
  -2.356800      0.0000000E+00
  -2.349800      0.0000000E+00
  -2.342800      0.0000000E+00
  -2.335800      0.0000000E+00
  -2.328800      0.0000000E+00
  -2.321800      0.0000000E+00
  -2.314800      0.0000000E+00
  -2.307800      0.0000000E+00
  -2.300800      0.0000000E+00
  -2.293800      0.0000000E+00
  -2.286800      0.0000000E+00
  -2.279800      0.0000000E+00
  -2.272800      0.0000000E+00
  -2.265800      0.0000000E+00
  -2.258800      0.0000000E+00
  -2.251800      0.0000000E+00
  -2.244800      0.0000000E+00
  -2.237800      0.0000000E+00
  -2.230800      0.0000000E+00
  -2.223800      0.0000000E+00
  -2.216800      0.0000000E+00
  -2.209800      0.0000000E+00
  -2.202800      0.0000000E+00
  -2.195800      0.0000000E+00
  -2.188800      0.0000000E+00
  -2.181800      0.0000000E+00
  -2.174800      0.0000000E+00
  -2.167800      0.0000000E+00
  -2.160800      0.0000000E+00
  -2.153800      0.0000000E+00
  -2.146800      0.0000000E+00
  -2.139800      0.0000000E+00
  -2.132800      0.0000000E+00
  -2.125800      0.0000000E+00
  -2.118800      0.0000000E+00
  -2.111800      0.0000000E+00
  -2.104800      0.0000000E+00
  -2.097800      0.0000000E+00
  -2.090800      0.0000000E+00
  -2.083800      0.0000000E+00
  -2.076800      0.0000000E+00
  -2.069800      0.0000000E+00
  -2.062800      0.0000000E+00
  -2.055800      0.0000000E+00
  -2.048800      0.0000000E+00
  -2.041800      0.0000000E+00
  -2.034800      0.0000000E+00
  -2.027800      0.0000000E+00
  -2.020800      0.0000000E+00
  -2.013800      0.0000000E+00
  -2.006800      0.0000000E+00
  -1.999800      0.0000000E+00
  -1.992800      0.0000000E+00
  -1.985800      0.0000000E+00
  -1.978800      0.0000000E+00
  -1.971800      0.0000000E+00
  -1.964800      0.0000000E+00
  -1.957800      0.0000000E+00
  -1.950800      0.0000000E+00
  -1.943800      0.0000000E+00
  -1.936800      0.0000000E+00
  -1.929800      0.0000000E+00
  -1.922800      0.0000000E+00
  -1.915800      0.0000000E+00
  -1.908800      0.0000000E+00
  -1.901800      0.0000000E+00
  -1.894800      0.0000000E+00
  -1.887800      0.0000000E+00
  -1.880800      0.0000000E+00
  -1.873800      0.0000000E+00
  -1.866800      0.0000000E+00
  -1.859800      0.0000000E+00
  -1.852800      0.0000000E+00
  -1.845800      0.0000000E+00
  -1.838800      0.0000000E+00
  -1.831800      0.0000000E+00
  -1.824800      0.0000000E+00
  -1.817800      0.0000000E+00
  -1.810800      0.0000000E+00
  -1.803800      0.0000000E+00
  -1.796800      0.0000000E+00
  -1.789800      0.0000000E+00
  -1.782800      0.0000000E+00
  -1.775800      0.0000000E+00
  -1.768800      0.0000000E+00
  -1.761800      0.0000000E+00
  -1.754800      0.0000000E+00
  -1.747800      0.0000000E+00
  -1.740800      0.0000000E+00
  -1.733800      0.0000000E+00
  -1.726800      0.0000000E+00
  -1.719800      0.0000000E+00
  -1.712800      0.0000000E+00
  -1.705800      0.0000000E+00
  -1.698800      0.0000000E+00
  -1.691800      0.0000000E+00
  -1.684800      0.0000000E+00
  -1.677800      0.0000000E+00
  -1.670800      0.0000000E+00
  -1.663800      0.0000000E+00
  -1.656800      0.0000000E+00
  -1.649800      0.0000000E+00
  -1.642800      0.0000000E+00
  -1.635800      0.0000000E+00
  -1.628800      0.0000000E+00
  -1.621800      0.0000000E+00
  -1.614800      0.0000000E+00
  -1.607800      0.0000000E+00
  -1.600800      0.0000000E+00
  -1.593800      0.0000000E+00
  -1.586800      0.0000000E+00
  -1.579800      0.0000000E+00
  -1.572800      0.0000000E+00
  -1.565800      0.0000000E+00
  -1.558800      0.0000000E+00
  -1.551800      0.0000000E+00
  -1.544800      0.0000000E+00
  -1.537800      0.0000000E+00
  -1.530800      0.0000000E+00
  -1.523800      0.0000000E+00
  -1.516800      0.0000000E+00
  -1.509800      0.0000000E+00
  -1.502800      0.0000000E+00
  -1.495800      0.0000000E+00
  -1.488800      0.0000000E+00
  -1.481800      0.0000000E+00
  -1.474800      0.0000000E+00
  -1.467800      0.0000000E+00
  -1.460800      0.0000000E+00
  -1.453800      0.0000000E+00
  -1.446800      0.0000000E+00
  -1.439800      0.0000000E+00
  -1.432800      0.0000000E+00
  -1.425800      0.0000000E+00
  -1.418800      0.0000000E+00
  -1.411800      0.0000000E+00
  -1.404800      0.0000000E+00
  -1.397800      0.0000000E+00
  -1.390800      0.0000000E+00
  -1.383800      0.0000000E+00
  -1.376800      0.0000000E+00
  -1.369800      0.0000000E+00
  -1.362800      0.0000000E+00
  -1.355800      0.0000000E+00
  -1.348800      0.0000000E+00
  -1.341800      0.0000000E+00
  -1.334800      0.0000000E+00
  -1.327800      0.0000000E+00
  -1.320800      0.0000000E+00
  -1.313800      0.0000000E+00
  -1.306800      0.0000000E+00
  -1.299800      0.0000000E+00
  -1.292800      0.0000000E+00
  -1.285800      0.0000000E+00
  -1.278800      0.0000000E+00
  -1.271800      0.0000000E+00
  -1.264800      0.0000000E+00
  -1.257800      0.0000000E+00
  -1.250800      0.0000000E+00
  -1.243800      0.0000000E+00
  -1.236800      0.0000000E+00
  -1.229800      0.0000000E+00
  -1.222800      0.0000000E+00
  -1.215800      0.0000000E+00
  -1.208800      0.0000000E+00
  -1.201800      0.0000000E+00
  -1.194800      0.0000000E+00
  -1.187800      0.0000000E+00
  -1.180800      0.0000000E+00
  -1.173800      0.0000000E+00
  -1.166800      0.0000000E+00
  -1.159800      0.0000000E+00
  -1.152800      0.0000000E+00
  -1.145800      0.0000000E+00
  -1.138800      0.0000000E+00
  -1.131800      0.0000000E+00
  -1.124800      0.0000000E+00
  -1.117800      0.0000000E+00
  -1.110800      0.0000000E+00
  -1.103800      0.0000000E+00
  -1.096800      0.0000000E+00
  -1.089800      0.0000000E+00
  -1.082800      0.0000000E+00
  -1.075800      0.0000000E+00
  -1.068800      0.0000000E+00
  -1.061800      0.0000000E+00
  -1.054800      0.0000000E+00
  -1.047800      0.0000000E+00
  -1.040800      0.0000000E+00
  -1.033800      0.0000000E+00
  -1.026800      0.0000000E+00
  -1.019800      0.0000000E+00
  -1.012800      0.0000000E+00
  -1.005800      0.0000000E+00
 -0.9988000      0.0000000E+00
 -0.9918000      0.0000000E+00
 -0.9848000      0.0000000E+00
 -0.9778000      0.0000000E+00
 -0.9708000      0.0000000E+00
 -0.9638000      0.0000000E+00
 -0.9568000      0.0000000E+00
 -0.9498000      0.0000000E+00
 -0.9428000      0.0000000E+00
 -0.9358000      0.0000000E+00
 -0.9288000      0.0000000E+00
 -0.9218000      0.0000000E+00
 -0.9148000      0.0000000E+00
 -0.9078000      0.0000000E+00
 -0.9008000      0.0000000E+00
 -0.8938000      0.0000000E+00
 -0.8868000      0.0000000E+00
 -0.8798000      0.0000000E+00
 -0.8728000      0.0000000E+00
 -0.8658000      0.0000000E+00
 -0.8588000      0.0000000E+00
 -0.8518000      0.0000000E+00
 -0.8448000      0.0000000E+00
 -0.8378000      0.0000000E+00
 -0.8308000      0.0000000E+00
 -0.8238000      0.0000000E+00
 -0.8168000      0.0000000E+00
 -0.8098000      0.0000000E+00
 -0.8028000      0.0000000E+00
 -0.7958000      0.0000000E+00
 -0.7888000      0.0000000E+00
 -0.7818000      0.0000000E+00
 -0.7748000      0.0000000E+00
 -0.7678000      0.0000000E+00
 -0.7608000      0.0000000E+00
 -0.7538000      0.0000000E+00
 -0.7468000      0.0000000E+00
 -0.7398000      0.0000000E+00
 -0.7328000      0.0000000E+00
 -0.7258000      0.0000000E+00
 -0.7188000      0.0000000E+00
 -0.7118000      0.0000000E+00
 -0.7048000      0.0000000E+00
 -0.6978000      0.0000000E+00
 -0.6908000      0.0000000E+00
 -0.6838000      0.0000000E+00
 -0.6768000      0.0000000E+00
 -0.6698000      0.0000000E+00
 -0.6628000      0.0000000E+00
 -0.6558000      0.0000000E+00
 -0.6488000      0.0000000E+00
 -0.6418000      0.0000000E+00
 -0.6348000      0.0000000E+00
 -0.6278000      0.0000000E+00
 -0.6208000      0.0000000E+00
 -0.6138000      0.0000000E+00
 -0.6068000      0.0000000E+00
 -0.5998000      0.0000000E+00
 -0.5928000      0.0000000E+00
 -0.5858000      0.0000000E+00
 -0.5788000      0.0000000E+00
 -0.5718000      0.0000000E+00
 -0.5648000      0.0000000E+00
 -0.5578000      0.0000000E+00
 -0.5508000      0.0000000E+00
 -0.5438000      0.0000000E+00
 -0.5368000      0.0000000E+00
 -0.5298000      0.0000000E+00
 -0.5228000      0.0000000E+00
 -0.5158000      0.0000000E+00
 -0.5088000      0.0000000E+00
 -0.5018000      0.0000000E+00
 -0.4948000      0.0000000E+00
 -0.4878000      0.0000000E+00
 -0.4808000      0.0000000E+00
 -0.4738000      0.0000000E+00
 -0.4668000      0.0000000E+00
 -0.4598000      0.0000000E+00
 -0.4528000      0.0000000E+00
 -0.4458000      0.0000000E+00
 -0.4388000      0.0000000E+00
 -0.4318000      0.0000000E+00
 -0.4248000      0.0000000E+00
 -0.4178000      0.0000000E+00
 -0.4108000      0.0000000E+00
 -0.4038000      0.0000000E+00
 -0.3968000      0.0000000E+00
 -0.3898000      0.0000000E+00
 -0.3828000     -1.4012985E-45
 -0.3758000     -1.4012985E-45
 -0.3688000     -1.4012985E-45
 -0.3618000     -1.4012985E-45
 -0.3548000     -2.8025969E-45
 -0.3478000     -2.8025969E-45
 -0.3408000     -1.4012985E-45
 -0.3338000     -1.4012985E-45
 -0.3268000     -1.4012985E-45
 -0.3198000     -1.4012985E-45
 -0.3128000      1.4012985E-45
 -0.3058000      2.8025969E-45
 -0.2988000      2.8025969E-45
 -0.2918000      4.2038954E-45
 -0.2848000      4.2038954E-45
 -0.2778000      4.2038954E-45
 -0.2708000      8.4077908E-45
 -0.2638000      9.8090893E-45
 -0.2568000      1.1210388E-44
 -0.2498000      8.4077908E-45
 -0.2428000      8.4077908E-45
 -0.2358000      5.6051939E-45
 -0.2288000      4.2038954E-45
 -0.2218000      2.8025969E-45
 -0.2148000      2.8025969E-45
 -0.2078000      0.0000000E+00
 -0.2008000     -1.4012985E-45
 -0.1938000     -4.2038954E-45
 -0.1868000     -7.0064923E-45
 -0.1798000     -8.4077908E-45
 -0.1728000     -9.8090893E-45
 -0.1658000     -1.1210388E-44
 -0.1588000     -1.5414283E-44
 -0.1518000     -1.4012985E-44
 -0.1448000     -1.1210388E-44
 -0.1378000     -5.6051939E-45
 -0.1308000     -2.8025969E-45
 -0.1238000      0.0000000E+00
 -0.1168000      4.2038954E-45
 -0.1098000      1.1210388E-44
 -0.1028000      2.2420775E-44
 -9.5799997E-02  2.9427268E-44
 -8.8799998E-02  3.5032462E-44
 -8.1799999E-02  3.6433760E-44
 -7.4800000E-02  4.3440252E-44
 -6.7800000E-02  4.0637655E-44
 -6.0800001E-02  4.2038954E-44
 -5.3800002E-02  3.3631163E-44
 -4.6799999E-02  2.8025969E-44
 -3.9799999E-02  2.1019477E-44
 -3.2800000E-02  8.4077908E-45
 -2.5800001E-02  1.4012985E-45
 -1.8800000E-02 -7.0064923E-45
 -1.1800000E-02 -2.6624671E-44
 -4.8000002E-03 -3.7835059E-44
  2.2000000E-03 -5.7453237E-44
  9.2000002E-03 -6.3058431E-44
  1.6200000E-02 -8.1275311E-44
  2.3200000E-02 -9.5288296E-44
  3.0200001E-02 -1.0509738E-43
  3.7200000E-02 -1.0509738E-43
  4.4199999E-02 -1.1490647E-43
  5.1199999E-02 -1.1350518E-43
  5.8200002E-02 -9.8090893E-44
  6.5200001E-02 -7.9874012E-44
  7.2200000E-02 -6.3058431E-44
  7.9200000E-02 -3.2229865E-44
  8.6199999E-02 -7.0064923E-45
  9.3199998E-02  2.3822074E-44
  0.1002000      7.1466222E-44
  0.1072000      1.0229479E-43
  0.1142000      1.4153114E-43
  0.1212000      1.8076750E-43
  0.1282000      2.0318828E-43
  0.1352000      2.2841165E-43
  0.1422000      2.3681944E-43
  0.1492000      2.4522723E-43
  0.1562000      2.3962204E-43
  0.1632000      2.2000386E-43
  0.1702000      1.8497140E-43
  0.1772000      1.3172206E-43
  0.1842000      7.4268819E-44
  0.1912000      4.2038954E-45
  0.1982000     -7.7071416E-44
  0.2052000     -1.5414283E-43
  0.2122000     -2.4382593E-43
  0.2192000     -3.3911423E-43
  0.2262000     -4.0637655E-43
  0.2332000     -4.6382979E-43
  0.2402000     -4.9886225E-43
  0.2472000     -5.2408563E-43
  0.2542000     -5.3809861E-43
  0.2612000     -5.2268433E-43
  0.2682000     -4.9605966E-43
  0.2752000     -4.2179084E-43
  0.2822000     -3.7975188E-43
  0.2892000     -3.4752202E-43
  0.2962000     -3.1389086E-43
  0.3032000     -2.2280646E-43
  0.3102000     -1.2051167E-43
  0.3172000      1.1210388E-44
  0.3242000      1.2471556E-43
  0.3312000      2.1159607E-43
  0.3382000      1.5694543E-43
  0.3452000     -5.4650640E-44
  0.3522000     -3.8115318E-43
  0.3592000     -8.7020635E-43
  0.3662000     -1.5666517E-42
  0.3732000     -2.4326541E-42
  0.3802000     -3.4457929E-42
  0.3872000     -4.3986759E-42
  0.3942000     -5.2800926E-42
  0.4012000     -6.0648198E-42
  0.4082000     -6.6351482E-42
  0.4152000     -7.0807611E-42
  0.4222000     -7.3764351E-42
  0.4292000     -7.4086650E-42
  0.4362000     -6.8621586E-42
  0.4432000     -5.6570419E-42
  0.4502000     -3.4668124E-42
  0.4572000     -3.3350903E-43
  0.4642000      3.7260526E-42
  0.4712000      8.6319985E-42
  0.4782000      1.4495031E-41
  0.4852000      2.1299737E-41
  0.4922000      2.8711204E-41
  0.4992000      3.6474398E-41
  0.5062000      4.4480016E-41
  0.5132000      5.2303465E-41
  0.5202000      5.9524356E-41
  0.5272000      6.5667649E-41
  0.5342000      7.0277921E-41
  0.5412000      7.2916566E-41
  0.5482000      7.3069307E-41
  0.5552000      7.0399834E-41
  0.5622000      6.4711963E-41
  0.5692000      5.5649766E-41
  0.5762000      4.3154388E-41
  0.5832000      2.7277676E-41
  0.5902000      8.2942856E-42
  0.5972000     -1.3396413E-41
  0.6042000     -3.7106383E-41
  0.6112000     -6.2013062E-41
  0.6182000     -8.7099107E-41
  0.6252000     -1.1124909E-40
  0.6322000     -1.3312476E-40
  0.6392000     -1.5140890E-40
  0.6462000     -1.6474926E-40
  0.6532000     -1.7180900E-40
  0.6602000     -1.7142084E-40
  0.6672000     -1.6258986E-40
  0.6742000     -1.4457477E-40
  0.6812000     -1.1698600E-40
  0.6882000     -7.9867006E-41
  0.6952000     -3.3688616E-41
  0.7022000      2.0551443E-41
  0.7092000      8.1386014E-41
  0.7162000      1.4676219E-40
  0.7232000      2.1417025E-40
  0.7302000      2.8072492E-40
  0.7372000      3.4315277E-40
  0.7442000      3.9798418E-40
  0.7512000      4.4166125E-40
  0.7582000      4.7069055E-40
  0.7652000      4.8186450E-40
  0.7722000      4.7242255E-40
  0.7792000      4.4026135E-40
  0.7862000      3.8407769E-40
  0.7932000      3.0359692E-40
  0.8002000      1.9969904E-40
  0.8072000      7.4438376E-41
  0.8142000     -6.8785538E-41
  0.8212000     -2.2529796E-40
  0.8282000     -3.8922046E-40
  0.8352000     -5.5359137E-40
  0.8422000     -7.1057883E-40
  0.8492000     -8.5178908E-40
  0.8562000     -9.6852565E-40
  0.8632000     -1.0522588E-39
  0.8702000     -1.0950111E-39
  0.8772000     -1.0899005E-39
  0.8842000     -1.0315098E-39
  0.8912000     -9.1633849E-40
  0.8982000     -7.4327113E-40
  0.9052000     -5.1381691E-40
  0.9122000     -2.3246280E-40
  0.9192000      9.3274630E-41
  0.9262000      4.5281418E-40
  0.9332000      8.3268938E-40
  0.9402000      1.2167965E-39
  0.9472000      1.5869565E-39
  0.9542000      1.9234587E-39
  0.9612000      2.2058918E-39
  0.9682000      2.4140617E-39
  0.9752000      2.5289416E-39
  0.9822000      2.5337732E-39
  0.9892000      2.4151267E-39
  0.9962000      2.1639608E-39
   1.003200      1.7765452E-39
   1.010200      1.2552649E-39
   1.017200      6.0924253E-40
   1.024200     -1.4531605E-40
   1.031200     -9.8514785E-40
   1.038200     -1.8800913E-39
   1.045200     -2.7938991E-39
   1.052200     -3.6850899E-39
   1.059200     -4.5085195E-39
   1.066200     -5.2169263E-39
   1.073200     -5.7630669E-39
   1.080200     -6.1019023E-39
   1.087200     -6.1930330E-39
   1.094200     -6.0029720E-39
   1.101200     -5.5077139E-39
   1.108200     -4.6947688E-39
   1.115200     -3.5651219E-39
   1.122200     -2.1346092E-39
   1.129200     -4.3485514E-40
   1.136200      1.4864932E-39
   1.143200      3.5662738E-39
   1.150200      5.7270998E-39
   1.157200      7.8793247E-39
   1.164200      9.9240266E-39
   1.171200      1.1756562E-38
   1.178200      1.3270743E-38
   1.185200      1.4363711E-38
   1.192200      1.4940950E-38
   1.199200      1.4921524E-38
   1.206200      1.4243138E-38
   1.213200      1.2867017E-38
   1.220200      1.0781924E-38
   1.227200      8.0075239E-39
   1.234200      4.5964579E-39
   1.241200      6.3528426E-40
   1.248200     -3.7562674E-39
   1.255200     -8.4275463E-39
   1.262200     -1.3200786E-38
   1.269200     -1.7876779E-38
   1.276200     -2.2241821E-38
   1.283200     -2.6076158E-38
   1.290200     -2.9163342E-38
   1.297200     -3.1300414E-38
   1.304200     -3.2308307E-38
   1.311200     -3.2042136E-38
   1.318200     -3.0400699E-38
   1.325200     -2.7334866E-38
   1.332200     -2.2854357E-38
   1.339200     -1.7032161E-38
   1.346200     -1.0006569E-38
   1.353200     -1.9802379E-39
   1.360200      6.7838232E-39
   1.367200      1.5969323E-38
   1.374200      2.5216943E-38
   1.381200      3.4137312E-38
   1.388200      4.2326534E-38
   1.395200      4.9383389E-38
   1.402200      5.4927907E-38
   1.409200      5.8620143E-38
   1.416200      6.0178550E-38
   1.423200      5.9396681E-38
   1.430200      5.6157507E-38
   1.437200      5.0444570E-38
   1.444200      4.2348459E-38
   1.451200      3.2068926E-38
   1.458200      1.9911505E-38
   1.465200      6.2784309E-39
   1.472200     -8.3457749E-39
   1.479200     -2.3413752E-38
   1.486200     -3.8339498E-38
   1.493200     -5.2525941E-38
   1.500200     -6.5394670E-38
   1.507200     -7.6416465E-38
   1.514200     -8.5140972E-38
   1.521200     -9.1223538E-38
   1.528200     -9.4447382E-38
   1.535200     -9.4739760E-38
   1.542200     -9.2179890E-38
   1.549200     -8.6998102E-38
   1.556200     -7.9564667E-38
   1.563200     -7.0368596E-38
   1.570200     -5.9986179E-38
   1.577200     -4.9040390E-38
   1.584200     -3.8152497E-38
   1.591200     -2.7888451E-38
   1.598200     -1.8702413E-38
   1.605200     -1.0881357E-38
   1.612200     -4.4941604E-39
   1.619200      6.5065090E-40
   1.626200      5.0338172E-39
   1.633200      9.4377956E-39
   1.640200      1.4938189E-38
   1.647200      2.2872331E-38
   1.654200      3.4781736E-38
   1.661200      5.2328700E-38
   1.668200      7.7187196E-38
   1.675200      1.1091080E-37
   1.682200      1.5478019E-37
   1.689200      2.0963847E-37
   1.696200      2.7571879E-37
   1.703200      3.5247607E-37
   1.710200      4.3843118E-37
   1.717200      5.3104051E-37
   1.724200      6.2660166E-37
   1.731200      7.2020876E-37
   1.738200      8.0576689E-37
   1.745200      8.7607933E-37
   1.752200      9.2300951E-37
   1.759200      9.3773243E-37
   1.766200      9.1106731E-37
   1.773200      8.3389868E-37
   1.780200      6.9767180E-37
   1.787200      4.9495763E-37
   1.794200      2.2006435E-37
   1.801200     -1.3032141E-37
   1.808200     -5.5649383E-37
   1.815200     -1.0551166E-36
   1.822200     -1.6186772E-36
   1.829200     -2.2350430E-36
   1.836200     -2.8871598E-36
   1.843200     -3.5529281E-36
   1.850200     -4.2052916E-36
   1.857200     -4.8125764E-36
   1.864200     -5.3390948E-36
   1.871200     -5.7460437E-36
   1.878200     -5.9926884E-36
   1.885200     -6.0378424E-36
   1.892200     -5.8416053E-36
   1.899200     -5.3673496E-36
   1.906200     -4.5838658E-36
   1.913200     -3.4676581E-36
   1.920200     -2.0052435E-36
   1.927200     -1.9541957E-37
   1.934200      1.9486456E-36
   1.941200      4.3975947E-36
   1.948200      7.1044650E-36
   1.955200      1.0003782E-35
   1.962200      1.3011302E-35
   1.969200      1.6024470E-35
   1.976200      1.8923759E-35
   1.983200      2.1574841E-35
   1.990200      2.3831789E-35
   1.997200      2.5541159E-35
   2.004200      2.6547053E-35
   2.011200      2.6697038E-35
   2.018200      2.5848788E-35
   2.025200      2.3877354E-35
   2.032200      2.0682800E-35
   2.039200      1.6197985E-35
   2.046200      1.0396168E-35
   2.053200      3.2981857E-36
   2.060200     -5.0212417E-36
   2.067200     -1.4428375E-35
   2.074200     -2.4726900E-35
   2.081200     -3.5656288E-35
   2.088200     -4.6892436E-35
   2.095200     -5.8050853E-35
   2.102200     -6.8692716E-35
   2.109200     -7.8333813E-35
   2.116200     -8.6456571E-35
   2.123200     -9.2525181E-35
   2.130200     -9.6003508E-35
   2.137200     -9.6375717E-35
   2.144200     -9.3168948E-35
   2.151200     -8.5977838E-35
   2.158200     -7.4489866E-35
   2.165200     -5.8510995E-35
   2.172200     -3.7990416E-35
   2.179200     -1.3043651E-35
   2.186200      1.6027415E-35
   2.193200      4.8718381E-35
   2.200200      8.4311506E-35
   2.207200      1.2187124E-34
   2.214200      1.6024709E-34
   2.221200      1.9808492E-34
   2.228200      2.3384743E-34
   2.235200      2.6584448E-34
   2.242200      2.9227294E-34
   2.249200      3.1126723E-34
   2.256200      3.2095925E-34
   2.263200      3.1954698E-34
   2.270200      3.0537107E-34
   2.277200      2.7699787E-34