  -4.484800      0.0000000E+00
  -4.477800      0.0000000E+00
  -4.470800      0.0000000E+00
  -4.463800      0.0000000E+00
  -4.456800      0.0000000E+00
  -4.449800      0.0000000E+00
  -4.442800      0.0000000E+00
  -4.435800      0.0000000E+00
  -4.428800      0.0000000E+00
  -4.421800      0.0000000E+00
  -4.414800      0.0000000E+00
  -4.407800      0.0000000E+00
  -4.400800      0.0000000E+00
  -4.393800      0.0000000E+00
  -4.386800      0.0000000E+00
  -4.379800      0.0000000E+00
  -4.372800      0.0000000E+00
  -4.365800      0.0000000E+00
  -4.358800      0.0000000E+00
  -4.351800      0.0000000E+00
  -4.344800      0.0000000E+00
  -4.337800      0.0000000E+00
  -4.330800      0.0000000E+00
  -4.323800      0.0000000E+00
  -4.316800      0.0000000E+00
  -4.309800      0.0000000E+00
  -4.302800      0.0000000E+00
  -4.295800      0.0000000E+00
  -4.288800      0.0000000E+00
  -4.281800      0.0000000E+00
  -4.274800      0.0000000E+00
  -4.267800      0.0000000E+00
  -4.260800      0.0000000E+00
  -4.253800      0.0000000E+00
  -4.246800      0.0000000E+00
  -4.239800      0.0000000E+00
  -4.232800      0.0000000E+00
  -4.225800      0.0000000E+00
  -4.218800      0.0000000E+00
  -4.211800      0.0000000E+00
  -4.204800      0.0000000E+00
  -4.197800      0.0000000E+00
  -4.190800      0.0000000E+00
  -4.183800      0.0000000E+00
  -4.176800      0.0000000E+00
  -4.169800      0.0000000E+00
  -4.162800      0.0000000E+00
  -4.155800      0.0000000E+00
  -4.148800      0.0000000E+00
  -4.141800      0.0000000E+00
  -4.134800      0.0000000E+00
  -4.127800      0.0000000E+00
  -4.120800      0.0000000E+00
  -4.113800      0.0000000E+00
  -4.106800      0.0000000E+00
  -4.099800      0.0000000E+00
  -4.092800      0.0000000E+00
  -4.085800      0.0000000E+00
  -4.078800      0.0000000E+00
  -4.071800      0.0000000E+00
  -4.064800      0.0000000E+00
  -4.057800      0.0000000E+00
  -4.050800      0.0000000E+00
  -4.043800      0.0000000E+00
  -4.036800      0.0000000E+00
  -4.029800      0.0000000E+00
  -4.022800      0.0000000E+00
  -4.015800      0.0000000E+00
  -4.008800      0.0000000E+00
  -4.001800      0.0000000E+00
  -3.994800      0.0000000E+00
  -3.987800      0.0000000E+00
  -3.980800      0.0000000E+00
  -3.973800      0.0000000E+00
  -3.966800      0.0000000E+00
  -3.959800      0.0000000E+00
  -3.952800      0.0000000E+00
  -3.945800      0.0000000E+00
  -3.938800      0.0000000E+00
  -3.931800      0.0000000E+00
  -3.924800      0.0000000E+00
  -3.917800      0.0000000E+00
  -3.910800      0.0000000E+00
  -3.903800      0.0000000E+00
  -3.896800      0.0000000E+00
  -3.889800      0.0000000E+00
  -3.882800      0.0000000E+00
  -3.875800      0.0000000E+00
  -3.868800      0.0000000E+00
  -3.861800      0.0000000E+00
  -3.854800      0.0000000E+00
  -3.847800      0.0000000E+00
  -3.840800      0.0000000E+00
  -3.833800      0.0000000E+00
  -3.826800      0.0000000E+00
  -3.819800      0.0000000E+00
  -3.812800      0.0000000E+00
  -3.805800      0.0000000E+00
  -3.798800      0.0000000E+00
  -3.791800      0.0000000E+00
  -3.784800      0.0000000E+00
  -3.777800      0.0000000E+00
  -3.770800      0.0000000E+00
  -3.763800      0.0000000E+00
  -3.756800      0.0000000E+00
  -3.749800      0.0000000E+00
  -3.742800      0.0000000E+00
  -3.735800      0.0000000E+00
  -3.728800      0.0000000E+00
  -3.721800      0.0000000E+00
  -3.714800      0.0000000E+00
  -3.707800      0.0000000E+00
  -3.700800      0.0000000E+00
  -3.693800      0.0000000E+00
  -3.686800      0.0000000E+00
  -3.679800      0.0000000E+00
  -3.672800      0.0000000E+00
  -3.665800      0.0000000E+00
  -3.658800      0.0000000E+00
  -3.651800      0.0000000E+00
  -3.644800      0.0000000E+00
  -3.637800      0.0000000E+00
  -3.630800      0.0000000E+00
  -3.623800      0.0000000E+00
  -3.616800      0.0000000E+00
  -3.609800      0.0000000E+00
  -3.602800      0.0000000E+00
  -3.595800      0.0000000E+00
  -3.588800      0.0000000E+00
  -3.581800      0.0000000E+00
  -3.574800      0.0000000E+00
  -3.567800      0.0000000E+00
  -3.560800      0.0000000E+00
  -3.553800      0.0000000E+00
  -3.546800      0.0000000E+00
  -3.539800      0.0000000E+00
  -3.532800      0.0000000E+00
  -3.525800      0.0000000E+00
  -3.518800      0.0000000E+00
  -3.511800      0.0000000E+00
  -3.504800      0.0000000E+00
  -3.497800      0.0000000E+00
  -3.490800      0.0000000E+00
  -3.483800      0.0000000E+00
  -3.476800      0.0000000E+00
  -3.469800      0.0000000E+00
  -3.462800      0.0000000E+00
  -3.455800      0.0000000E+00
  -3.448800      0.0000000E+00
  -3.441800      0.0000000E+00
  -3.434800      0.0000000E+00
  -3.427800      0.0000000E+00
  -3.420800      0.0000000E+00
  -3.413800      0.0000000E+00
  -3.406800      0.0000000E+00
  -3.399800      0.0000000E+00
  -3.392800      0.0000000E+00
  -3.385800      0.0000000E+00
  -3.378800      0.0000000E+00
  -3.371800      0.0000000E+00
  -3.364800      0.0000000E+00
  -3.357800      0.0000000E+00
  -3.350800      0.0000000E+00
  -3.343800      0.0000000E+00
  -3.336800      0.0000000E+00
  -3.329800      0.0000000E+00
  -3.322800      0.0000000E+00
  -3.315800      0.0000000E+00
  -3.308800      0.0000000E+00
  -3.301800      0.0000000E+00
  -3.294800      0.0000000E+00
  -3.287800      0.0000000E+00
  -3.280800      0.0000000E+00
  -3.273800      0.0000000E+00
  -3.266800      0.0000000E+00
  -3.259800      0.0000000E+00
  -3.252800      0.0000000E+00
  -3.245800      0.0000000E+00
  -3.238800      0.0000000E+00
  -3.231800      0.0000000E+00
  -3.224800      0.0000000E+00
  -3.217800      0.0000000E+00
  -3.210800      0.0000000E+00
  -3.203800      0.0000000E+00
  -3.196800      0.0000000E+00
  -3.189800      0.0000000E+00
  -3.182800      0.0000000E+00
  -3.175800      0.0000000E+00
  -3.168800      0.0000000E+00
  -3.161800      0.0000000E+00
  -3.154800      0.0000000E+00
  -3.147800      0.0000000E+00
  -3.140800      0.0000000E+00
  -3.133800      0.0000000E+00
  -3.126800      0.0000000E+00
  -3.119800      0.0000000E+00
  -3.112800      0.0000000E+00
  -3.105800      0.0000000E+00
  -3.098800      0.0000000E+00
  -3.091800      0.0000000E+00
  -3.084800      0.0000000E+00
  -3.077800      0.0000000E+00
  -3.070800      0.0000000E+00
  -3.063800      0.0000000E+00
  -3.056800      0.0000000E+00
  -3.049800      0.0000000E+00
  -3.042800      0.0000000E+00
  -3.035800      0.0000000E+00
  -3.028800      0.0000000E+00
  -3.021800      0.0000000E+00
  -3.014800      0.0000000E+00
  -3.007800      0.0000000E+00
  -3.000800      0.0000000E+00
  -2.993800      0.0000000E+00
  -2.986800      0.0000000E+00
  -2.979800      0.0000000E+00
  -2.972800      0.0000000E+00
  -2.965800      0.0000000E+00
  -2.958800      0.0000000E+00
  -2.951800      0.0000000E+00
  -2.944800      0.0000000E+00
  -2.937800      0.0000000E+00
  -2.930800      0.0000000E+00
  -2.923800      0.0000000E+00
  -2.916800      0.0000000E+00
  -2.909800      0.0000000E+00
  -2.902800      0.0000000E+00
  -2.895800      0.0000000E+00
  -2.888800      0.0000000E+00
  -2.881800      0.0000000E+00
  -2.874800      0.0000000E+00
  -2.867800      0.0000000E+00
  -2.860800      0.0000000E+00
  -2.853800      0.0000000E+00
  -2.846800      0.0000000E+00
  -2.839800      0.0000000E+00
  -2.832800      0.0000000E+00
  -2.825800      0.0000000E+00
  -2.818800      0.0000000E+00
  -2.811800      0.0000000E+00
  -2.804800      0.0000000E+00
  -2.797800      0.0000000E+00
  -2.790800      0.0000000E+00
  -2.783800      0.0000000E+00
  -2.776800      0.0000000E+00
  -2.769800      0.0000000E+00
  -2.762800      0.0000000E+00
  -2.755800      0.0000000E+00
  -2.748800      0.0000000E+00
  -2.741800      0.0000000E+00
  -2.734800      0.0000000E+00
  -2.727800      0.0000000E+00
  -2.720800      0.0000000E+00
  -2.713800      0.0000000E+00
  -2.706800      0.0000000E+00
  -2.699800      0.0000000E+00
  -2.692800      0.0000000E+00
  -2.685800      0.0000000E+00
  -2.678800      0.0000000E+00
  -2.671800      0.0000000E+00
  -2.664800      0.0000000E+00
  -2.657800      0.0000000E+00
  -2.650800      0.0000000E+00
  -2.643800      0.0000000E+00
  -2.636800      0.0000000E+00
  -2.629800      0.0000000E+00
  -2.622800      0.0000000E+00
  -2.615800      0.0000000E+00
  -2.608800      0.0000000E+00
  -2.601800      0.0000000E+00
  -2.594800      0.0000000E+00
  -2.587800      0.0000000E+00
  -2.580800      0.0000000E+00
  -2.573800      0.0000000E+00
  -2.566800      0.0000000E+00
  -2.559800      0.0000000E+00
  -2.552800      0.0000000E+00
  -2.545800      0.0000000E+00
  -2.538800      0.0000000E+00
  -2.531800      0.0000000E+00
  -2.524800      0.0000000E+00
  -2.517800      0.0000000E+00
  -2.510800      0.0000000E+00
  -2.503800      0.0000000E+00
  -2.496800      0.0000000E+00
  -2.489800      0.0000000E+00
  -2.482800      0.0000000E+00
  -2.475800      0.0000000E+00
  -2.468800      0.0000000E+00
  -2.461800      0.0000000E+00
  -2.454800      0.0000000E+00
  -2.447800      0.0000000E+00
  -2.440800      0.0000000E+00
  -2.433800      0.0000000E+00
  -2.426800      0.0000000E+00
  -2.419800      0.0000000E+00
  -2.412800      0.0000000E+00
  -2.405800      0.0000000E+00
  -2.398800      0.0000000E+00
  -2.391800      0.0000000E+00
  -2.384800      0.0000000E+00
  -2.377800      0.0000000E+00
  -2.370800      0.0000000E+00
  -2.363800      0.0000000E+00
  -2.356800      0.0000000E+00
  -2.349800      0.0000000E+00
  -2.342800      0.0000000E+00
  -2.335800      0.0000000E+00
  -2.328800      0.0000000E+00
  -2.321800      0.0000000E+00
  -2.314800      0.0000000E+00
  -2.307800      0.0000000E+00
  -2.300800      0.0000000E+00
  -2.293800      0.0000000E+00
  -2.286800      0.0000000E+00
  -2.279800      0.0000000E+00
  -2.272800      0.0000000E+00
  -2.265800      0.0000000E+00
  -2.258800      0.0000000E+00
  -2.251800      0.0000000E+00
  -2.244800      0.0000000E+00
  -2.237800      0.0000000E+00
  -2.230800      0.0000000E+00
  -2.223800      0.0000000E+00
  -2.216800      0.0000000E+00
  -2.209800      0.0000000E+00
  -2.202800      0.0000000E+00
  -2.195800      0.0000000E+00
  -2.188800      0.0000000E+00
  -2.181800      0.0000000E+00
  -2.174800      0.0000000E+00
  -2.167800      0.0000000E+00
  -2.160800      0.0000000E+00
  -2.153800      0.0000000E+00
  -2.146800      0.0000000E+00
  -2.139800      0.0000000E+00
  -2.132800      0.0000000E+00
  -2.125800      0.0000000E+00
  -2.118800      0.0000000E+00
  -2.111800      0.0000000E+00
  -2.104800      0.0000000E+00
  -2.097800      0.0000000E+00
  -2.090800      0.0000000E+00
  -2.083800      0.0000000E+00
  -2.076800      0.0000000E+00
  -2.069800      0.0000000E+00
  -2.062800      0.0000000E+00
  -2.055800      0.0000000E+00
  -2.048800      0.0000000E+00
  -2.041800      0.0000000E+00
  -2.034800      0.0000000E+00
  -2.027800      0.0000000E+00
  -2.020800      0.0000000E+00
  -2.013800      0.0000000E+00
  -2.006800      0.0000000E+00
  -1.999800      0.0000000E+00
  -1.992800      0.0000000E+00
  -1.985800      0.0000000E+00
  -1.978800      0.0000000E+00
  -1.971800      0.0000000E+00
  -1.964800      0.0000000E+00
  -1.957800      0.0000000E+00
  -1.950800      0.0000000E+00
  -1.943800      0.0000000E+00
  -1.936800      0.0000000E+00
  -1.929800      0.0000000E+00
  -1.922800      0.0000000E+00
  -1.915800      0.0000000E+00
  -1.908800      0.0000000E+00
  -1.901800      0.0000000E+00
  -1.894800      0.0000000E+00
  -1.887800      0.0000000E+00
  -1.880800      0.0000000E+00
  -1.873800      0.0000000E+00
  -1.866800      0.0000000E+00
  -1.859800      0.0000000E+00
  -1.852800      0.0000000E+00
  -1.845800      0.0000000E+00
  -1.838800      0.0000000E+00
  -1.831800      0.0000000E+00
  -1.824800      0.0000000E+00
  -1.817800      0.0000000E+00
  -1.810800      0.0000000E+00
  -1.803800      0.0000000E+00
  -1.796800      0.0000000E+00
  -1.789800      0.0000000E+00
  -1.782800      0.0000000E+00
  -1.775800      0.0000000E+00
  -1.768800      0.0000000E+00
  -1.761800      0.0000000E+00
  -1.754800      0.0000000E+00
  -1.747800      0.0000000E+00
  -1.740800      0.0000000E+00
  -1.733800      0.0000000E+00
  -1.726800      0.0000000E+00
  -1.719800      0.0000000E+00
  -1.712800      0.0000000E+00
  -1.705800      0.0000000E+00
  -1.698800      0.0000000E+00
  -1.691800      0.0000000E+00
  -1.684800      0.0000000E+00
  -1.677800      0.0000000E+00
  -1.670800      0.0000000E+00
  -1.663800      0.0000000E+00
  -1.656800      0.0000000E+00
  -1.649800      0.0000000E+00
  -1.642800      0.0000000E+00
  -1.635800      0.0000000E+00
  -1.628800      0.0000000E+00
  -1.621800      0.0000000E+00
  -1.614800      0.0000000E+00
  -1.607800      0.0000000E+00
  -1.600800      0.0000000E+00
  -1.593800      0.0000000E+00
  -1.586800      0.0000000E+00
  -1.579800      0.0000000E+00
  -1.572800      0.0000000E+00
  -1.565800      0.0000000E+00
  -1.558800      0.0000000E+00
  -1.551800      0.0000000E+00
  -1.544800      0.0000000E+00
  -1.537800      0.0000000E+00
  -1.530800      0.0000000E+00
  -1.523800      0.0000000E+00
  -1.516800      0.0000000E+00
  -1.509800      0.0000000E+00
  -1.502800      0.0000000E+00
  -1.495800      0.0000000E+00
  -1.488800      0.0000000E+00
  -1.481800      0.0000000E+00
  -1.474800      0.0000000E+00
  -1.467800      0.0000000E+00
  -1.460800      0.0000000E+00
  -1.453800      0.0000000E+00
  -1.446800      0.0000000E+00
  -1.439800      0.0000000E+00
  -1.432800      0.0000000E+00
  -1.425800      0.0000000E+00
  -1.418800      0.0000000E+00
  -1.411800      0.0000000E+00
  -1.404800      0.0000000E+00
  -1.397800      0.0000000E+00
  -1.390800      0.0000000E+00
  -1.383800      0.0000000E+00
  -1.376800      0.0000000E+00
  -1.369800      0.0000000E+00
  -1.362800      0.0000000E+00
  -1.355800      0.0000000E+00
  -1.348800      0.0000000E+00
  -1.341800      0.0000000E+00
  -1.334800      0.0000000E+00
  -1.327800      0.0000000E+00
  -1.320800      0.0000000E+00
  -1.313800      0.0000000E+00
  -1.306800      0.0000000E+00
  -1.299800      0.0000000E+00
  -1.292800      0.0000000E+00
  -1.285800      0.0000000E+00
  -1.278800      0.0000000E+00
  -1.271800      0.0000000E+00
  -1.264800      0.0000000E+00
  -1.257800      0.0000000E+00
  -1.250800      0.0000000E+00
  -1.243800      0.0000000E+00
  -1.236800      0.0000000E+00
  -1.229800      0.0000000E+00
  -1.222800      0.0000000E+00
  -1.215800      0.0000000E+00
  -1.208800      0.0000000E+00
  -1.201800      0.0000000E+00
  -1.194800      0.0000000E+00
  -1.187800      0.0000000E+00
  -1.180800      0.0000000E+00
  -1.173800      0.0000000E+00
  -1.166800      0.0000000E+00
  -1.159800      0.0000000E+00
  -1.152800      0.0000000E+00
  -1.145800      0.0000000E+00
  -1.138800      0.0000000E+00
  -1.131800      0.0000000E+00
  -1.124800      0.0000000E+00
  -1.117800      0.0000000E+00
  -1.110800      0.0000000E+00
  -1.103800      0.0000000E+00
  -1.096800      0.0000000E+00
  -1.089800      0.0000000E+00
  -1.082800      0.0000000E+00
  -1.075800      0.0000000E+00
  -1.068800      0.0000000E+00
  -1.061800      0.0000000E+00
  -1.054800      0.0000000E+00
  -1.047800      0.0000000E+00
  -1.040800      0.0000000E+00
  -1.033800      0.0000000E+00
  -1.026800      0.0000000E+00
  -1.019800      0.0000000E+00
  -1.012800      0.0000000E+00
  -1.005800      0.0000000E+00
 -0.9988000      0.0000000E+00
 -0.9918000      0.0000000E+00
 -0.9848000      0.0000000E+00
 -0.9778000      0.0000000E+00
 -0.9708000      0.0000000E+00
 -0.9638000      0.0000000E+00
 -0.9568000      0.0000000E+00
 -0.9498000      0.0000000E+00
 -0.9428000      0.0000000E+00
 -0.9358000      0.0000000E+00
 -0.9288000      0.0000000E+00
 -0.9218000      0.0000000E+00
 -0.9148000      0.0000000E+00
 -0.9078000      0.0000000E+00
 -0.9008000      0.0000000E+00
 -0.8938000      0.0000000E+00
 -0.8868000      0.0000000E+00
 -0.8798000      0.0000000E+00
 -0.8728000      0.0000000E+00
 -0.8658000      0.0000000E+00
 -0.8588000      0.0000000E+00
 -0.8518000      0.0000000E+00
 -0.8448000      0.0000000E+00
 -0.8378000      0.0000000E+00
 -0.8308000      0.0000000E+00
 -0.8238000      0.0000000E+00
 -0.8168000      0.0000000E+00
 -0.8098000      0.0000000E+00
 -0.8028000      0.0000000E+00
 -0.7958000      0.0000000E+00
 -0.7888000      0.0000000E+00
 -0.7818000      0.0000000E+00
 -0.7748000      0.0000000E+00
 -0.7678000      0.0000000E+00
 -0.7608000      0.0000000E+00
 -0.7538000      0.0000000E+00
 -0.7468000      0.0000000E+00
 -0.7398000      0.0000000E+00
 -0.7328000      0.0000000E+00
 -0.7258000      0.0000000E+00
 -0.7188000      0.0000000E+00
 -0.7118000      0.0000000E+00
 -0.7048000      0.0000000E+00
 -0.6978000      0.0000000E+00
 -0.6908000      0.0000000E+00
 -0.6838000      0.0000000E+00
 -0.6768000      0.0000000E+00
 -0.6698000      0.0000000E+00
 -0.6628000      0.0000000E+00
 -0.6558000      0.0000000E+00
 -0.6488000      0.0000000E+00
 -0.6418000      0.0000000E+00
 -0.6348000      0.0000000E+00
 -0.6278000      0.0000000E+00
 -0.6208000      0.0000000E+00
 -0.6138000      0.0000000E+00
 -0.6068000      0.0000000E+00
 -0.5998000      0.0000000E+00
 -0.5928000      0.0000000E+00
 -0.5858000      0.0000000E+00
 -0.5788000      0.0000000E+00
 -0.5718000      0.0000000E+00
 -0.5648000      0.0000000E+00
 -0.5578000      0.0000000E+00
 -0.5508000      0.0000000E+00
 -0.5438000      0.0000000E+00
 -0.5368000      0.0000000E+00
 -0.5298000      0.0000000E+00
 -0.5228000      0.0000000E+00
 -0.5158000      1.4012985E-45
 -0.5088000      1.4012985E-45
 -0.5018000      1.4012985E-45
 -0.4948000      1.4012985E-45
 -0.4878000      1.4012985E-45
 -0.4808000      1.4012985E-45
 -0.4738000      1.4012985E-45
 -0.4668000      1.4012985E-45
 -0.4598000      0.0000000E+00
 -0.4528000      0.0000000E+00
 -0.4458000     -1.4012985E-45
 -0.4388000     -2.8025969E-45
 -0.4318000     -2.8025969E-45
 -0.4248000     -2.8025969E-45
 -0.4178000     -2.8025969E-45
 -0.4108000     -2.8025969E-45
 -0.4038000     -2.8025969E-45
 -0.3968000     -2.8025969E-45
 -0.3898000     -2.8025969E-45
 -0.3828000     -4.2038954E-45
 -0.3758000     -4.2038954E-45
 -0.3688000     -4.2038954E-45
 -0.3618000     -4.2038954E-45
 -0.3548000     -5.6051939E-45
 -0.3478000     -5.6051939E-45
 -0.3408000     -5.6051939E-45
 -0.3338000     -7.0064923E-45
 -0.3268000     -5.6051939E-45
 -0.3198000     -4.2038954E-45
 -0.3128000     -4.2038954E-45
 -0.3058000     -2.8025969E-45
 -0.2988000     -2.8025969E-45
 -0.2918000     -2.8025969E-45
 -0.2848000      0.0000000E+00
 -0.2778000      1.4012985E-45
 -0.2708000      4.2038954E-45
 -0.2638000      1.4012985E-45
 -0.2568000      0.0000000E+00
 -0.2498000     -5.6051939E-45
 -0.2428000     -8.4077908E-45
 -0.2358000     -9.8090893E-45
 -0.2288000     -1.1210388E-44
 -0.2218000     -1.4012985E-44
 -0.2148000     -1.1210388E-44
 -0.2078000     -1.1210388E-44
 -0.2008000     -8.4077908E-45
 -0.1938000     -9.8090893E-45
 -0.1868000     -5.6051939E-45
 -0.1798000     -2.8025969E-45
 -0.1728000     -1.4012985E-45
 -0.1658000      4.2038954E-45
 -0.1588000      5.6051939E-45
 -0.1518000      9.8090893E-45
 -0.1448000      1.2611686E-44
 -0.1378000      2.2420775E-44
 -0.1308000      2.2420775E-44
 -0.1238000      2.6624671E-44
 -0.1168000      3.0828566E-44
 -0.1098000      2.9427268E-44
 -0.1028000      2.9427268E-44
 -9.5799997E-02  3.2229865E-44
 -8.8799998E-02  2.6624671E-44
 -8.1799999E-02  2.1019477E-44
 -7.4800000E-02  1.9618179E-44
 -6.7800000E-02  1.4012985E-44
 -6.0800001E-02  9.8090893E-45
 -5.3800002E-02  1.1210388E-44
 -4.6799999E-02  4.2038954E-45
 -3.9799999E-02 -5.6051939E-45
 -3.2800000E-02 -2.3822074E-44
 -2.5800001E-02 -2.5223372E-44
 -1.8800000E-02 -3.7835059E-44
 -1.1800000E-02 -5.4650640E-44
 -4.8000002E-03 -5.7453237E-44
  2.2000000E-03 -6.8663625E-44
  9.2000002E-03 -7.2867520E-44
  1.6200000E-02 -7.7071416E-44
  2.3200000E-02 -8.5479206E-44
  3.0200001E-02 -8.5479206E-44
  3.7200000E-02 -7.8472714E-44
  4.4199999E-02 -7.2867520E-44
  5.1199999E-02 -6.0255834E-44
  5.8200002E-02 -3.9236357E-44
  6.5200001E-02 -1.8216880E-44
  7.2200000E-02  2.8025969E-45
  7.9200000E-02  3.6433760E-44
  8.6199999E-02  7.0064923E-44
  9.3199998E-02  8.6880505E-44
  0.1002000      1.2051167E-43
  0.1072000      1.5134023E-43
  0.1142000      1.7095841E-43
  0.1212000      1.8777399E-43
  0.1282000      1.9197789E-43
  0.1352000      2.0318828E-43
  0.1422000      1.8917529E-43
  0.1492000      1.8076750E-43
  0.1562000      1.4293244E-43
  0.1632000      1.0369609E-43
  0.1702000      6.4459729E-44
  0.1772000     -4.2038954E-45
  0.1842000     -7.8472714E-44
  0.1912000     -1.6114932E-43
  0.1982000     -2.4382593E-43
  0.2052000     -3.1108826E-43
  0.2122000     -3.3631163E-43
  0.2192000     -3.4471942E-43
  0.2262000     -3.6013371E-43
  0.2332000     -3.4752202E-43
  0.2402000     -2.9567398E-43
  0.2472000     -2.1860256E-43
  0.2542000     -1.2331426E-43
  0.2612000     -2.1019477E-44
  0.2682000      4.3440252E-44
  0.2752000      9.1084400E-44
  0.2822000      8.4077908E-44
  0.2892000      1.1210388E-44
  0.2962000      1.4433374E-43
  0.3032000      4.5682330E-43
  0.3102000      9.6549464E-43
  0.3172000      1.4377322E-42
  0.3242000      1.9351932E-42
  0.3312000      2.4859035E-42
  0.3382000      3.0814553E-42
  0.3452000      3.7863085E-42
  0.3522000      4.6621200E-42
  0.3592000      5.3221316E-42
  0.3662000      5.6570419E-42
  0.3732000      5.5771679E-42
  0.3802000      4.9241628E-42
  0.3872000      3.6223565E-42
  0.3942000      1.7193932E-42
  0.4012000     -6.9504404E-43
  0.4082000     -3.5971332E-42
  0.4152000     -6.9882754E-42
  0.4222000     -1.0574198E-41
  0.4292000     -1.4573504E-41
  0.4362000     -1.8839057E-41
  0.4432000     -2.3153655E-41
  0.4502000     -2.7267867E-41
  0.4572000     -3.0912644E-41
  0.4642000     -3.3520461E-41
  0.4712000     -3.4847490E-41
  0.4782000     -3.4610671E-41
  0.4852000     -3.2868857E-41
  0.4922000     -2.9432873E-41
  0.4992000     -2.4170997E-41
  0.5062000     -1.6968323E-41
  0.5132000     -7.8052324E-42
  0.5202000      3.2552163E-42
  0.5272000      1.5952382E-41
  0.5342000      2.9797211E-41
  0.5412000      4.4114277E-41
  0.5482000      5.8313634E-41
  0.5552000      7.1614759E-41
  0.5622000      8.3209103E-41
  0.5692000      9.2240471E-41
  0.5762000      9.7861080E-41
  0.5832000      9.9251168E-41
  0.5902000      9.5719896E-41
  0.5972000      8.6752987E-41
  0.6042000      7.1972090E-41
  0.6112000      5.1301537E-41
  0.6182000      2.5022987E-41
  0.6252000     -6.5804976E-42
  0.6322000     -4.2535014E-41
  0.6392000     -8.1641050E-41
  0.6462000     -1.2245107E-40
  0.6532000     -1.6314477E-40
  0.6602000     -2.0173653E-40
  0.6672000     -2.3607535E-40
  0.6742000     -2.6391355E-40
  0.6812000     -2.8307070E-40
  0.6882000     -2.9146868E-40
  0.6952000     -2.8737969E-40
  0.7022000     -2.6935759E-40
  0.7092000     -2.3649574E-40
  0.7162000     -1.8845503E-40
  0.7232000     -1.2566144E-40
  0.7302000     -4.9240227E-41
  0.7372000      3.8991130E-41
  0.7442000      1.3623003E-40
  0.7512000      2.3903489E-40
  0.7582000      3.4327608E-40
  0.7652000      4.4427888E-40
  0.7722000      5.3697757E-40
  0.7792000      6.1606686E-40
  0.7862000      6.7628205E-40
  0.7932000      7.1261632E-40
  0.8002000      7.2057710E-40
  0.8072000      6.9646916E-40
  0.8142000      6.3763564E-40
  0.8212000      5.4274532E-40
  0.8282000      4.1194952E-40
  0.8352000      2.4705593E-40
  0.8422000      5.1657467E-41
  0.8492000     -1.6885086E-40
  0.8562000     -4.0741492E-40
  0.8632000     -6.5513646E-40
  0.8702000     -9.0180423E-40
  0.8772000     -1.1361420E-39
  0.8842000     -1.3460831E-39
  0.8912000     -1.5193747E-39
  0.8982000     -1.6440594E-39
  0.9052000     -1.7090166E-39
  0.9122000     -1.7045927E-39
  0.9192000     -1.6232459E-39
  0.9262000     -1.4600045E-39
  0.9332000     -1.2130915E-39
  0.9402000     -8.8426137E-40
  0.9472000     -4.7917681E-40
  0.9542000     -7.5095585E-42
  0.9612000      5.1704130E-40
  0.9682000      1.0769511E-39
  0.9752000      1.6512102E-39
  0.9822000      2.2159671E-39
  0.9892000      2.7452530E-39
  0.9962000      3.2119597E-39
   1.003200      3.5888571E-39
   1.010200      3.8499372E-39
   1.017200      3.9715209E-39
   1.024200      3.9337082E-39
   1.031200      3.7215124E-39
   1.038200      3.3261024E-39
   1.045200      2.7457967E-39
   1.052200      1.9867469E-39
   1.059200      1.0635673E-39
   1.066200     -5.7453237E-43
   1.073200     -1.1741326E-39
   1.080200     -2.4177247E-39
   1.087200     -3.6851599E-39
   1.094200     -4.9247934E-39
   1.101200     -6.0812710E-39
   1.108200     -7.0975991E-39
   1.115200     -7.9174190E-39
   1.122200     -8.4876115E-39
   1.129200     -8.7607793E-39
   1.136200     -8.6979128E-39
   1.143200     -8.2707004E-39
   1.150200     -7.4638355E-39
   1.157200     -6.2766246E-39
   1.164200     -4.7244497E-39
   1.171200     -2.8393516E-39
   1.178200     -6.7007570E-40
   1.185200      1.7185777E-39
   1.192200      4.2472502E-39
   1.199200      6.8242464E-39
   1.206200      9.3484516E-39
   1.213200      1.1712958E-38
   1.220200      1.3809131E-38
   1.227200      1.5531129E-38
   1.234200      1.6780705E-38
   1.241200      1.7471881E-38
   1.248200      1.7535616E-38
   1.255200      1.6923933E-38
   1.262200      1.5613466E-38
   1.269200      1.3608161E-38
   1.276200      1.0941029E-38
   1.283200      7.6745978E-39
   1.290200      3.9002032E-39
   1.297200     -2.6419240E-40
   1.304200     -4.6773801E-39
   1.311200     -9.1797129E-39
   1.318200     -1.3598876E-38
   1.325200     -1.7756820E-38
   1.332200     -2.1477221E-38
   1.339200     -2.4593430E-38
   1.346200     -2.6956462E-38
   1.353200     -2.8442581E-38
   1.360200     -2.8960204E-38
   1.367200     -2.8455714E-38
   1.374200     -2.6917752E-38
   1.381200     -2.4379771E-38
   1.388200     -2.0920524E-38
   1.395200     -1.6662343E-38
   1.402200     -1.1767196E-38
   1.409200     -6.4304858E-39
   1.416200     -8.7277493E-40
   1.423200      4.6702741E-39
   1.430200      9.9593743E-39
   1.437200      1.4763940E-38
   1.444200      1.8874875E-38
   1.451200      2.2116807E-38
   1.458200      2.4359567E-38
   1.465200      2.5527816E-38
   1.472200      2.5608292E-38
   1.479200      2.4654190E-38
   1.486200      2.2786039E-38
   1.493200      2.0188721E-38
   1.500200      1.7104641E-38
   1.507200      1.3822789E-38
   1.514200      1.0664181E-38
   1.521200      7.9639575E-39
   1.528200      6.0508922E-39
   1.535200      5.2252402E-39
   1.542200      5.7358761E-39
   1.549200      7.7580942E-39
   1.556200      1.1373221E-38
   1.563200      1.6551559E-38
   1.570200      2.3139759E-38
   1.577200      3.0854064E-38
   1.584200      3.9280386E-38
   1.591200      4.7881774E-38
   1.598200      5.6014283E-38
   1.605200      6.2950593E-38
   1.612200      6.7911649E-38
   1.619200      7.0105230E-38
   1.626200      6.8770101E-38
   1.633200      6.3224440E-38
   1.640200      5.2915866E-38
   1.647200      3.7470816E-38
   1.654200      1.6740857E-38
   1.661200     -9.1577139E-39
   1.668200     -3.9813131E-38
   1.675200     -7.4499472E-38
   1.682200     -1.1217253E-37
   1.689200     -1.5148220E-37
   1.696200     -1.9080248E-37
   1.703200     -2.2828060E-37
   1.710200     -2.6190394E-37
   1.717200     -2.8958456E-37
   1.724200     -3.0925837E-37
   1.731200     -3.1899598E-37
   1.738200     -3.1712075E-37
   1.745200     -3.0232911E-37
   1.752200     -2.7380637E-37
   1.759200     -2.3133220E-37
   1.766200     -1.7536827E-37
   1.773200     -1.0712149E-37
   1.780200     -2.8576013E-38
   1.787200      5.7512271E-38
   1.794200      1.4766249E-37
   1.801200      2.3776192E-37
   1.808200      3.2320480E-37
   1.815200      3.9907850E-37
   1.822200      4.6039192E-37
   1.829200      5.0234218E-37
   1.836200      5.2061054E-37
   1.843200      5.1167541E-37
   1.850200      4.7313253E-37
   1.857200      4.0400233E-37
   1.864200      3.0501088E-37
   1.871200      1.7882317E-37
   1.878200      3.0211502E-38
   1.885200     -1.3385889E-37
   1.892200     -3.0424750E-37
   1.899200     -4.6977045E-37
   1.906200     -6.1746174E-37
   1.913200     -7.3296766E-37
   1.920200     -8.0108211E-37
   1.927200     -8.0641072E-37
   1.934200     -7.3416385E-37
   1.941200     -5.7104971E-37
   1.948200     -3.0625125E-37
   1.955200      6.7552361E-38
   1.962200      5.5315389E-37
   1.969200      1.1478274E-36
   1.976200      1.8424267E-36
   1.983200      2.6206251E-36
   1.990200      3.4583673E-36
   1.997200      4.3235649E-36
   2.004200      5.1761223E-36
   2.011200      5.9683107E-36
   2.018200      6.6455559E-36
   2.025200      7.1476578E-36
   2.032200      7.4104573E-36
   2.039200      7.3679604E-36
   2.046200      6.9548901E-36
   2.053200      6.1096376E-36
   2.060200      4.7775433E-36
   2.067200      2.9144393E-36
   2.074200      4.9032998E-37
   2.081200     -2.5069051E-36
   2.088200     -6.0679278E-36
   2.095200     -1.0158638E-35
   2.102200     -1.4717350E-35
   2.109200     -1.9652585E-35
   2.116200     -2.4841683E-35
   2.123200     -3.0130434E-35
   2.130200     -3.5333836E-35
   2.137200     -4.0238162E-35
   2.144200     -4.4604440E-35
   2.151200     -4.8173406E-35
   2.158200     -5.0671922E-35
   2.165200     -5.1820991E-35
   2.172200     -5.1344979E-35
   2.179200     -4.8982230E-35
   2.186200     -4.4496611E-35
   2.193200     -3.7689867E-35
   2.200200     -2.8414264E-35
   2.207200     -1.6585278E-35
   2.214200     -2.1937018E-36
   2.221200      1.4683171E-35
   2.228200      3.3872007E-35
   2.235200      5.5095971E-35
   2.242200      7.7969961E-35
   2.249200      1.0199906E-34
   2.256200      1.2658063E-34
   2.263200      1.5101059E-34
   2.270200      1.7449397E-34
   2.277200      1.9616032E-34