  -14.8161001       0.00000000    
  -14.7960997       0.00000000    
  -14.7761002       0.00000000    
  -14.7560997       0.00000000    
  -14.7361002       0.00000000    
  -14.7160997       0.00000000    
  -14.6961002       0.00000000    
  -14.6760998       0.00000000    
  -14.6561003       0.00000000    
  -14.6360998       0.00000000    
  -14.6161003       0.00000000    
  -14.5960999       0.00000000    
  -14.5761003       0.00000000    
  -14.5560999       0.00000000    
  -14.5361004       0.00000000    
  -14.5160999       0.00000000    
  -14.4961004       0.00000000    
  -14.4761000       0.00000000    
  -14.4561005       0.00000000    
  -14.4361000       0.00000000    
  -14.4160995       0.00000000    
  -14.3961000       0.00000000    
  -14.3760996       0.00000000    
  -14.3561001       0.00000000    
  -14.3360996       0.00000000    
  -14.3161001       0.00000000    
  -14.2960997       0.00000000    
  -14.2761002       0.00000000    
  -14.2560997       0.00000000    
  -14.2361002       0.00000000    
  -14.2160997       0.00000000    
  -14.1961002       0.00000000    
  -14.1760998       0.00000000    
  -14.1561003       0.00000000    
  -14.1360998       0.00000000    
  -14.1161003       0.00000000    
  -14.0960999       0.00000000    
  -14.0761003       0.00000000    
  -14.0560999       0.00000000    
  -14.0361004       0.00000000    
  -14.0160999       0.00000000    
  -13.9961004       0.00000000    
  -13.9761000       0.00000000    
  -13.9561005       0.00000000    
  -13.9361000       0.00000000    
  -13.9160995       0.00000000    
  -13.8961000       0.00000000    
  -13.8760996       0.00000000    
  -13.8561001       0.00000000    
  -13.8360996       0.00000000    
  -13.8161001       0.00000000    
  -13.7960997       0.00000000    
  -13.7761002       0.00000000    
  -13.7560997       0.00000000    
  -13.7361002       0.00000000    
  -13.7160997       0.00000000    
  -13.6961002       0.00000000    
  -13.6760998       0.00000000    
  -13.6561003       0.00000000    
  -13.6360998       0.00000000    
  -13.6161003       0.00000000    
  -13.5960999       0.00000000    
  -13.5761003       0.00000000    
  -13.5560999       0.00000000    
  -13.5361004       0.00000000    
  -13.5160999       0.00000000    
  -13.4961004       0.00000000    
  -13.4761000       0.00000000    
  -13.4561005       0.00000000    
  -13.4361000       0.00000000    
  -13.4160995       0.00000000    
  -13.3961000       0.00000000    
  -13.3760996       0.00000000    
  -13.3561001       0.00000000    
  -13.3360996       0.00000000    
  -13.3161001       0.00000000    
  -13.2960997       0.00000000    
  -13.2761002       0.00000000    
  -13.2560997       0.00000000    
  -13.2361002       0.00000000    
  -13.2160997       0.00000000    
  -13.1961002       0.00000000    
  -13.1760998       0.00000000    
  -13.1561003       0.00000000    
  -13.1360998       0.00000000    
  -13.1161003       0.00000000    
  -13.0960999       0.00000000    
  -13.0761003       0.00000000    
  -13.0560999       0.00000000    
  -13.0361004       0.00000000    
  -13.0160999       0.00000000    
  -12.9961004       0.00000000    
  -12.9761000       0.00000000    
  -12.9561005       0.00000000    
  -12.9361000       0.00000000    
  -12.9160995       0.00000000    
  -12.8961000       0.00000000    
  -12.8760996       0.00000000    
  -12.8561001       0.00000000    
  -12.8360996       0.00000000    
  -12.8161001       0.00000000    
  -12.7960997       0.00000000    
  -12.7761002       0.00000000    
  -12.7560997       0.00000000    
  -12.7361002       0.00000000    
  -12.7160997       0.00000000    
  -12.6961002       0.00000000    
  -12.6760998       0.00000000    
  -12.6561003       0.00000000    
  -12.6360998       0.00000000    
  -12.6161003       0.00000000    
  -12.5960999       0.00000000    
  -12.5761003       0.00000000    
  -12.5560999       0.00000000    
  -12.5361004       0.00000000    
  -12.5160999       0.00000000    
  -12.4961004       0.00000000    
  -12.4761000       0.00000000    
  -12.4561005       0.00000000    
  -12.4361000       0.00000000    
  -12.4160995       0.00000000    
  -12.3961000       0.00000000    
  -12.3760996       0.00000000    
  -12.3561001       0.00000000    
  -12.3360996       0.00000000    
  -12.3161001       0.00000000    
  -12.2960997       0.00000000    
  -12.2761002       0.00000000    
  -12.2560997       0.00000000    
  -12.2361002       0.00000000    
  -12.2160997       0.00000000    
  -12.1961002       0.00000000    
  -12.1760998       0.00000000    
  -12.1561003       0.00000000    
  -12.1360998       0.00000000    
  -12.1161003       0.00000000    
  -12.0960999       0.00000000    
  -12.0761003       0.00000000    
  -12.0560999       0.00000000    
  -12.0361004       0.00000000    
  -12.0160999       0.00000000    
  -11.9961004       0.00000000    
  -11.9761000       0.00000000    
  -11.9561005       0.00000000    
  -11.9361000       0.00000000    
  -11.9160995       0.00000000    
  -11.8961000       0.00000000    
  -11.8760996       0.00000000    
  -11.8561001       0.00000000    
  -11.8360996       0.00000000    
  -11.8161001       0.00000000    
  -11.7960997       0.00000000    
  -11.7761002       0.00000000    
  -11.7560997       0.00000000    
  -11.7361002       0.00000000    
  -11.7160997       0.00000000    
  -11.6961002       0.00000000    
  -11.6760998       0.00000000    
  -11.6561003       0.00000000    
  -11.6360998       0.00000000    
  -11.6161003       0.00000000    
  -11.5960999       0.00000000    
  -11.5761003       0.00000000    
  -11.5560999       0.00000000    
  -11.5361004       0.00000000    
  -11.5160999       0.00000000    
  -11.4961004       0.00000000    
  -11.4761000       0.00000000    
  -11.4561005       0.00000000    
  -11.4361000       0.00000000    
  -11.4160995       0.00000000    
  -11.3961000       0.00000000    
  -11.3760996       0.00000000    
  -11.3561001       0.00000000    
  -11.3360996       0.00000000    
  -11.3161001       0.00000000    
  -11.2960997       0.00000000    
  -11.2761002       0.00000000    
  -11.2560997       0.00000000    
  -11.2361002       0.00000000    
  -11.2160997       0.00000000    
  -11.1961002       0.00000000    
  -11.1760998       0.00000000    
  -11.1561003       0.00000000    
  -11.1360998       0.00000000    
  -11.1161003       0.00000000    
  -11.0960999       0.00000000    
  -11.0761003       0.00000000    
  -11.0560999       0.00000000    
  -11.0361004       0.00000000    
  -11.0160999       0.00000000    
  -10.9961004       0.00000000    
  -10.9761000       0.00000000    
  -10.9561005       0.00000000    
  -10.9361000       0.00000000    
  -10.9160995       0.00000000    
  -10.8961000       0.00000000    
  -10.8760996       0.00000000    
  -10.8561001       0.00000000    
  -10.8360996       0.00000000    
  -10.8161001       0.00000000    
  -10.7960997       0.00000000    
  -10.7761002       0.00000000    
  -10.7560997       0.00000000    
  -10.7361002       0.00000000    
  -10.7160997       0.00000000    
  -10.6961002       0.00000000    
  -10.6760998       0.00000000    
  -10.6561003       0.00000000    
  -10.6360998       0.00000000    
  -10.6161003       0.00000000    
  -10.5960999       0.00000000    
  -10.5761003       0.00000000    
  -10.5560999       0.00000000    
  -10.5361004       0.00000000    
  -10.5160999       0.00000000    
  -10.4961004       0.00000000    
  -10.4761000       0.00000000    
  -10.4561005       0.00000000    
  -10.4361000       0.00000000    
  -10.4160995       0.00000000    
  -10.3961000       0.00000000    
  -10.3760996       0.00000000    
  -10.3561001       0.00000000    
  -10.3360996       0.00000000    
  -10.3161001       0.00000000    
  -10.2960997       0.00000000    
  -10.2761002       0.00000000    
  -10.2560997       0.00000000    
  -10.2361002       0.00000000    
  -10.2160997       0.00000000    
  -10.1961002       0.00000000    
  -10.1760998       0.00000000    
  -10.1561003       0.00000000    
  -10.1360998       0.00000000    
  -10.1161003       0.00000000    
  -10.0960999       0.00000000    
  -10.0761003       0.00000000    
  -10.0560999       0.00000000    
  -10.0361004       0.00000000    
  -10.0160999       0.00000000    
  -9.99610043       0.00000000    
  -9.97609997       0.00000000    
  -9.95610046       0.00000000    
  -9.93610001       0.00000000    
  -9.91609955       0.00000000    
  -9.89610004       0.00000000    
  -9.87609959       0.00000000    
  -9.85610008       0.00000000    
  -9.83609962       0.00000000    
  -9.81610012       0.00000000    
  -9.79609966       0.00000000    
  -9.77610016       0.00000000    
  -9.75609970       0.00000000    
  -9.73610020       0.00000000    
  -9.71609974       0.00000000    
  -9.69610023       0.00000000    
  -9.67609978       0.00000000    
  -9.65610027       0.00000000    
  -9.63609982       0.00000000    
  -9.61610031       0.00000000    
  -9.59609985       0.00000000    
  -9.57610035       0.00000000    
  -9.55609989       0.00000000    
  -9.53610039       0.00000000    
  -9.51609993       0.00000000    
  -9.49610043       0.00000000    
  -9.47609997       0.00000000    
  -9.45610046       0.00000000    
  -9.43610001       0.00000000    
  -9.41609955       0.00000000    
  -9.39610004       0.00000000    
  -9.37609959       0.00000000    
  -9.35610008       0.00000000    
  -9.33609962       0.00000000    
  -9.31610012       0.00000000    
  -9.29609966       0.00000000    
  -9.27610016       0.00000000    
  -9.25609970       0.00000000    
  -9.23610020       0.00000000    
  -9.21609974       0.00000000    
  -9.19610023       0.00000000    
  -9.17609978       0.00000000    
  -9.15610027       0.00000000    
  -9.13609982       0.00000000    
  -9.11610031       0.00000000    
  -9.09609985       0.00000000    
  -9.07610035       0.00000000    
  -9.05609989       0.00000000    
  -9.03610039       0.00000000    
  -9.01609993       0.00000000    
  -8.99610043       0.00000000    
  -8.97609997       0.00000000    
  -8.95610046       0.00000000    
  -8.93610001       0.00000000    
  -8.91609955       0.00000000    
  -8.89610004       0.00000000    
  -8.87609959       0.00000000    
  -8.85610008       0.00000000    
  -8.83609962       0.00000000    
  -8.81610012       0.00000000    
  -8.79609966       0.00000000    
  -8.77610016       0.00000000    
  -8.75609970       0.00000000    
  -8.73610020       0.00000000    
  -8.71609974       0.00000000    
  -8.69610023       0.00000000    
  -8.67609978       0.00000000    
  -8.65610027       0.00000000    
  -8.63609982       0.00000000    
  -8.61610031       0.00000000    
  -8.59609985       0.00000000    
  -8.57610035       0.00000000    
  -8.55609989       0.00000000    
  -8.53610039       0.00000000    
  -8.51609993       0.00000000    
  -8.49610043       0.00000000    
  -8.47609997       0.00000000    
  -8.45610046       0.00000000    
  -8.43610001       0.00000000    
  -8.41609955       0.00000000    
  -8.39610004       0.00000000    
  -8.37609959       0.00000000    
  -8.35610008       0.00000000    
  -8.33609962       0.00000000    
  -8.31610012       0.00000000    
  -8.29609966       0.00000000    
  -8.27610016       0.00000000    
  -8.25609970       0.00000000    
  -8.23610020       0.00000000    
  -8.21609974       0.00000000    
  -8.19610023       0.00000000    
  -8.17609978       0.00000000    
  -8.15610027       0.00000000    
  -8.13609982       0.00000000    
  -8.11610031       0.00000000    
  -8.09609985       0.00000000    
  -8.07610035       0.00000000    
  -8.05609989       0.00000000    
  -8.03610039       0.00000000    
  -8.01609993       0.00000000    
  -7.99609995       0.00000000    
  -7.97609997       0.00000000    
  -7.95609999       0.00000000    
  -7.93610001       0.00000000    
  -7.91610003       0.00000000    
  -7.89610004       0.00000000    
  -7.87610006       0.00000000    
  -7.85610008       0.00000000    
  -7.83610010       0.00000000    
  -7.81610012       0.00000000    
  -7.79610014       0.00000000    
  -7.77610016       0.00000000    
  -7.75610018       0.00000000    
  -7.73610020       0.00000000    
  -7.71610022       0.00000000    
  -7.69610023       0.00000000    
  -7.67609978       0.00000000    
  -7.65609980       0.00000000    
  -7.63609982       0.00000000    
  -7.61609983       0.00000000    
  -7.59609985       0.00000000    
  -7.57609987       0.00000000    
  -7.55609989       0.00000000    
  -7.53609991       0.00000000    
  -7.51609993       0.00000000    
  -7.49609995       0.00000000    
  -7.47609997       0.00000000    
  -7.45609999       0.00000000    
  -7.43610001       0.00000000    
  -7.41610003       0.00000000    
  -7.39610004       0.00000000    
  -7.37610006       0.00000000    
  -7.35610008       0.00000000    
  -7.33610010       0.00000000    
  -7.31610012       0.00000000    
  -7.29610014       0.00000000    
  -7.27610016       0.00000000    
  -7.25610018       0.00000000    
  -7.23610020       0.00000000    
  -7.21610022       0.00000000    
  -7.19610023       0.00000000    
  -7.17609978       0.00000000    
  -7.15609980       0.00000000    
  -7.13609982       0.00000000    
  -7.11609983       0.00000000    
  -7.09609985       0.00000000    
  -7.07609987       0.00000000    
  -7.05609989       0.00000000    
  -7.03609991       0.00000000    
  -7.01609993       0.00000000    
  -6.99609995       0.00000000    
  -6.97609997       0.00000000    
  -6.95609999       0.00000000    
  -6.93610001       0.00000000    
  -6.91610003       0.00000000    
  -6.89610004       0.00000000    
  -6.87610006       0.00000000    
  -6.85610008       0.00000000    
  -6.83610010       0.00000000    
  -6.81610012       0.00000000    
  -6.79610014       0.00000000    
  -6.77610016       0.00000000    
  -6.75610018       0.00000000    
  -6.73610020       0.00000000    
  -6.71610022       0.00000000    
  -6.69610023       0.00000000    
  -6.67609978       0.00000000    
  -6.65609980       0.00000000    
  -6.63609982       0.00000000    
  -6.61609983       0.00000000    
  -6.59609985       0.00000000    
  -6.57609987       0.00000000    
  -6.55609989       0.00000000    
  -6.53609991       0.00000000    
  -6.51609993       0.00000000    
  -6.49609995       0.00000000    
  -6.47609997       0.00000000    
  -6.45609999       0.00000000    
  -6.43610001       0.00000000    
  -6.41610003       0.00000000    
  -6.39610004       0.00000000    
  -6.37610006       0.00000000    
  -6.35610008       0.00000000    
  -6.33610010       0.00000000    
  -6.31610012       0.00000000    
  -6.29610014       0.00000000    
  -6.27610016       0.00000000    
  -6.25610018       0.00000000    
  -6.23610020       0.00000000    
  -6.21610022       0.00000000    
  -6.19610023       0.00000000    
  -6.17609978       0.00000000    
  -6.15609980       0.00000000    
  -6.13609982       0.00000000    
  -6.11609983       0.00000000    
  -6.09609985       0.00000000    
  -6.07609987       0.00000000    
  -6.05609989       0.00000000    
  -6.03609991       0.00000000    
  -6.01609993       0.00000000    
  -5.99609995       0.00000000    
  -5.97609997       0.00000000    
  -5.95609999       0.00000000    
  -5.93610001       0.00000000    
  -5.91610003       0.00000000    
  -5.89610004       0.00000000    
  -5.87610006       0.00000000    
  -5.85610008       0.00000000    
  -5.83610010       0.00000000    
  -5.81610012       0.00000000    
  -5.79610014       0.00000000    
  -5.77610016       0.00000000    
  -5.75610018       0.00000000    
  -5.73610020       0.00000000    
  -5.71610022       0.00000000    
  -5.69610023       0.00000000    
  -5.67609978       0.00000000    
  -5.65609980       0.00000000    
  -5.63609982       0.00000000    
  -5.61609983       0.00000000    
  -5.59609985       0.00000000    
  -5.57609987       0.00000000    
  -5.55609989       0.00000000    
  -5.53609991       0.00000000    
  -5.51609993       0.00000000    
  -5.49609995       0.00000000    
  -5.47609997       0.00000000    
  -5.45609999       0.00000000    
  -5.43610001       0.00000000    
  -5.41610003       0.00000000    
  -5.39610004       0.00000000    
  -5.37610006       0.00000000    
  -5.35610008       0.00000000    
  -5.33610010       0.00000000    
  -5.31610012       0.00000000    
  -5.29610014       0.00000000    
  -5.27610016       0.00000000    
  -5.25610018       0.00000000    
  -5.23610020       0.00000000    
  -5.21610022       0.00000000    
  -5.19610023       0.00000000    
  -5.17609978       0.00000000    
  -5.15609980       0.00000000    
  -5.13609982       0.00000000    
  -5.11609983       0.00000000    
  -5.09609985       0.00000000    
  -5.07609987       0.00000000    
  -5.05609989       0.00000000    
  -5.03609991       0.00000000    
  -5.01609993       0.00000000    
  -4.99609995       0.00000000    
  -4.97609997       0.00000000    
  -4.95609999       0.00000000    
  -4.93610001       0.00000000    
  -4.91610003       0.00000000    
  -4.89610004       0.00000000    
  -4.87610006       0.00000000    
  -4.85610008       0.00000000    
  -4.83610010       0.00000000    
  -4.81610012       0.00000000    
  -4.79610014       0.00000000    
  -4.77610016       0.00000000    
  -4.75610018       0.00000000    
  -4.73610020       0.00000000    
  -4.71610022       0.00000000    
  -4.69610023       0.00000000    
  -4.67609978       0.00000000    
  -4.65609980       0.00000000    
  -4.63609982       0.00000000    
  -4.61609983       0.00000000    
  -4.59609985       0.00000000    
  -4.57609987       0.00000000    
  -4.55609989       0.00000000    
  -4.53609991       0.00000000    
  -4.51609993       0.00000000    
  -4.49609995       0.00000000    
  -4.47609997       0.00000000    
  -4.45609999       0.00000000    
  -4.43610001       0.00000000    
  -4.41610003       0.00000000    
  -4.39610004       0.00000000    
  -4.37610006       0.00000000    
  -4.35610008       0.00000000    
  -4.33610010       0.00000000    
  -4.31610012       0.00000000    
  -4.29610014       0.00000000    
  -4.27610016       0.00000000    
  -4.25610018       0.00000000    
  -4.23610020       0.00000000    
  -4.21610022       0.00000000    
  -4.19610023       0.00000000    
  -4.17609978       0.00000000    
  -4.15609980       0.00000000    
  -4.13609982       0.00000000    
  -4.11609983       0.00000000    
  -4.09609985       0.00000000    
  -4.07609987       0.00000000    
  -4.05609989       0.00000000    
  -4.03609991       0.00000000    
  -4.01609993       0.00000000    
  -3.99609995       0.00000000    
  -3.97609997       0.00000000    
  -3.95609999       0.00000000    
  -3.93610001       0.00000000    
  -3.91610003       0.00000000    
  -3.89610004       0.00000000    
  -3.87610006       0.00000000    
  -3.85610008       0.00000000    
  -3.83610010       0.00000000    
  -3.81609988       0.00000000    
  -3.79609990       0.00000000    
  -3.77609992       0.00000000    
  -3.75609994       0.00000000    
  -3.73609996       0.00000000    
  -3.71609998       0.00000000    
  -3.69610000       0.00000000    
  -3.67610002       0.00000000    
  -3.65610003       0.00000000    
  -3.63610005       0.00000000    
  -3.61610007       0.00000000    
  -3.59610009       0.00000000    
  -3.57610011       0.00000000    
  -3.55609989       0.00000000    
  -3.53609991       0.00000000    
  -3.51609993       0.00000000    
  -3.49609995       0.00000000    
  -3.47609997       0.00000000    
  -3.45609999       0.00000000    
  -3.43610001       0.00000000    
  -3.41610003       0.00000000    
  -3.39610004       0.00000000    
  -3.37610006       0.00000000    
  -3.35610008       0.00000000    
  -3.33610010       0.00000000    
  -3.31609988       0.00000000    
  -3.29609990       0.00000000    
  -3.27609992       0.00000000    
  -3.25609994       0.00000000    
  -3.23609996       0.00000000    
  -3.21609998       0.00000000    
  -3.19610000       0.00000000    
  -3.17610002       0.00000000    
  -3.15610003       0.00000000    
  -3.13610005       0.00000000    
  -3.11610007       0.00000000    
  -3.09610009       0.00000000    
  -3.07610011       0.00000000    
  -3.05609989       0.00000000    
  -3.03609991       0.00000000    
  -3.01609993       0.00000000    
  -2.99609995       0.00000000    
  -2.97609997       0.00000000    
  -2.95609999       0.00000000    
  -2.93610001       0.00000000    
  -2.91610003       0.00000000    
  -2.89610004       0.00000000    
  -2.87610006       0.00000000    
  -2.85610008       0.00000000    
  -2.83610010       0.00000000    
  -2.81609988       0.00000000    
  -2.79609990       0.00000000    
  -2.77609992       0.00000000    
  -2.75609994       0.00000000    
  -2.73609996       0.00000000    
  -2.71609998       0.00000000    
  -2.69610000       0.00000000    
  -2.67610002       0.00000000    
  -2.65610003       0.00000000    
  -2.63610005       0.00000000    
  -2.61610007       0.00000000    
  -2.59610009       0.00000000    
  -2.57610011       0.00000000    
  -2.55609989       0.00000000    
  -2.53609991       0.00000000    
  -2.51609993       0.00000000    
  -2.49609995       0.00000000    
  -2.47609997       0.00000000    
  -2.45609999       0.00000000    
  -2.43610001       0.00000000    
  -2.41610003       0.00000000    
  -2.39610004       0.00000000    
  -2.37610006       0.00000000    
  -2.35610008       0.00000000    
  -2.33610010       0.00000000    
  -2.31609988       0.00000000    
  -2.29609990       0.00000000    
  -2.27609992       0.00000000    
  -2.25609994       0.00000000    
  -2.23609996       0.00000000    
  -2.21609998       0.00000000    
  -2.19610000       0.00000000    
  -2.17610002       0.00000000    
  -2.15610003       0.00000000    
  -2.13610005       0.00000000    
  -2.11610007       0.00000000    
  -2.09610009       0.00000000    
  -2.07610011       0.00000000    
  -2.05609989       0.00000000    
  -2.03609991       0.00000000    
  -2.01609993       0.00000000    
  -1.99609995       0.00000000    
  -1.97609997       0.00000000    
  -1.95609999       0.00000000    
  -1.93610001       0.00000000    
  -1.91610003       0.00000000    
  -1.89610004       0.00000000    
  -1.87609994       0.00000000    
  -1.85609996       0.00000000    
  -1.83609998       0.00000000    
  -1.81610000       0.00000000    
  -1.79610002       0.00000000    
  -1.77610004       0.00000000    
  -1.75610006       0.00000000    
  -1.73609996       0.00000000    
  -1.71609998       0.00000000    
  -1.69610000       0.00000000    
  -1.67610002       0.00000000    
  -1.65610003       0.00000000    
  -1.63610005       0.00000000    
  -1.61609995       0.00000000    
  -1.59609997       0.00000000    
  -1.57609999       0.00000000    
  -1.55610001       0.00000000    
  -1.53610003       0.00000000    
  -1.51610005       0.00000000    
  -1.49609995       0.00000000    
  -1.47609997       0.00000000    
  -1.45609999       0.00000000    
  -1.43610001       0.00000000    
  -1.41610003       0.00000000    
  -1.39610004       0.00000000    
  -1.37609994       0.00000000    
  -1.35609996       0.00000000    
  -1.33609998       0.00000000    
  -1.31610000       0.00000000    
  -1.29610002       0.00000000    
  -1.27610004       0.00000000    
  -1.25610006       0.00000000    
  -1.23609996       0.00000000    
  -1.21609998       0.00000000    
  -1.19610000       0.00000000    
  -1.17610002       0.00000000    
  -1.15610003       0.00000000    
  -1.13610005       0.00000000    
  -1.11609995       0.00000000    
  -1.09609997       0.00000000    
  -1.07609999       0.00000000    
  -1.05610001       0.00000000    
  -1.03610003       0.00000000    
  -1.01610005       0.00000000    
 -0.996100008       0.00000000    
 -0.976100028       0.00000000    
 -0.956099987       0.00000000    
 -0.936100006       0.00000000    
 -0.916100025       0.00000000    
 -0.896099985       0.00000000    
 -0.876100004       0.00000000    
 -0.856100023       0.00000000    
 -0.836099982       0.00000000    
 -0.816100001       0.00000000    
 -0.796100020       0.00000000    
 -0.776099980       0.00000000    
 -0.756099999       0.00000000    
 -0.736100018       0.00000000    
 -0.716099977       0.00000000    
 -0.696099997       0.00000000    
 -0.676100016       0.00000000    
 -0.656099975       0.00000000    
 -0.636099994       0.00000000    
 -0.616100013       0.00000000    
 -0.596099973       0.00000000    
 -0.576099992       0.00000000    
 -0.556100011       0.00000000    
 -0.536099970       0.00000000    
 -0.516099989       0.00000000    
 -0.496100008       0.00000000    
 -0.476099998       0.00000000    
 -0.456099987       0.00000000    
 -0.436100006       0.00000000    
 -0.416099995       0.00000000    
 -0.396100014       0.00000000    
 -0.376100004       0.00000000    
 -0.356099993       0.00000000    
 -0.336100012       0.00000000    
 -0.316100001       0.00000000    
 -0.296099991       0.00000000    
 -0.276100010       0.00000000    
 -0.256099999       0.00000000    
 -0.236100003       0.00000000    
 -0.216100007       0.00000000    
 -0.196099997       0.00000000    
 -0.176100001       0.00000000    
 -0.156100005       0.00000000    
 -0.136099994       0.00000000    
 -0.116099998       0.00000000    
  -9.61000025E-02   0.00000000    
  -7.60999992E-02   0.00000000    
  -5.60999997E-02   0.00000000    
  -3.61000001E-02   0.00000000    
  -1.61000006E-02   0.00000000    
   3.89999989E-03   0.00000000    
   2.39000004E-02   0.00000000    
   4.39000018E-02   0.00000000    
   6.39000013E-02   0.00000000    
   8.38999972E-02   0.00000000    
  0.103900000       0.00000000    
  0.123899996       0.00000000    
  0.143900007       0.00000000    
  0.163900003       0.00000000    
  0.183899999       0.00000000    
  0.203899994       0.00000000    
  0.223900005       0.00000000    
  0.243900001       0.00000000    
  0.263900012       0.00000000    
  0.283899993       0.00000000    
  0.303900003       0.00000000    
  0.323900014       0.00000000    
  0.343899995       0.00000000    
  0.363900006       0.00000000    
  0.383899987       0.00000000    
  0.403899997       0.00000000    
  0.423900008       0.00000000    
  0.443899989       0.00000000    
  0.463900000       0.00000000    
  0.483900011       0.00000000    
  0.503899992       0.00000000    
  0.523899972       0.00000000    
  0.543900013       0.00000000    
  0.563899994       0.00000000    
  0.583899975       0.00000000    
  0.603900015       0.00000000    
  0.623899996       0.00000000    
  0.643899977       0.00000000    
  0.663900018       0.00000000    
  0.683899999       0.00000000    
  0.703899980       0.00000000    
  0.723900020       0.00000000    
  0.743900001       0.00000000    
  0.763899982       0.00000000    
  0.783900023       0.00000000    
  0.803900003       0.00000000    
  0.823899984       0.00000000    
  0.843900025       0.00000000    
  0.863900006       0.00000000    
  0.883899987       0.00000000    
  0.903900027       0.00000000    
  0.923900008       0.00000000    
  0.943899989       0.00000000    
  0.963900030       0.00000000    
  0.983900011       0.00000000    
   1.00390005       0.00000000    
   1.02390003       0.00000000    
   1.04390001       0.00000000    
   1.06389999       0.00000000    
   1.08389997       0.00000000    
   1.10389996       0.00000000    
   1.12390006       0.00000000    
   1.14390004       0.00000000    
   1.16390002       0.00000000    
   1.18390000       0.00000000    
   1.20389998       0.00000000    
   1.22389996       0.00000000    
   1.24389994       0.00000000    
   1.26390004       0.00000000    
   1.28390002       0.00000000    
   1.30390000       0.00000000    
   1.32389998       0.00000000    
   1.34389997       0.00000000    
   1.36389995       0.00000000    
   1.38390005       0.00000000    
   1.40390003       0.00000000    
   1.42390001       0.00000000    
   1.44389999       0.00000000    
   1.46389997       0.00000000    
   1.48389995       0.00000000    
   1.50390005       0.00000000    
   1.52390003       0.00000000    
   1.54390001       0.00000000    
   1.56389999       0.00000000    
   1.58389997       0.00000000    
   1.60389996       0.00000000    
   1.62390006       0.00000000    
   1.64390004       0.00000000    
   1.66390002       0.00000000    
   1.68390000       0.00000000    
   1.70389998       0.00000000    
   1.72389996       0.00000000    
   1.74389994       0.00000000    
   1.76390004       0.00000000    
   1.78390002       0.00000000    
   1.80390000       0.00000000    
   1.82389998       0.00000000    
   1.84389997       0.00000000    
   1.86389995       0.00000000    
   1.88390005       0.00000000    
   1.90390003       0.00000000    
   1.92390001       0.00000000    
   1.94389999       0.00000000    
   1.96389997       0.00000000    
   1.98389995       0.00000000    
   2.00390005       0.00000000    
   2.02390003       0.00000000    
   2.04390001       0.00000000    
   2.06389999       0.00000000    
   2.08389997       0.00000000    
   2.10389996       0.00000000    
   2.12389994       0.00000000    
   2.14389992       0.00000000    
   2.16389990       0.00000000    
   2.18390012       0.00000000    
   2.20390010       0.00000000    
   2.22390008       0.00000000    
   2.24390006       0.00000000    
   2.26390004       0.00000000    
   2.28390002       0.00000000    
   2.30390000       0.00000000    