  -1.500000      0.0000000E+00
  -1.494000      0.0000000E+00
  -1.488000      0.0000000E+00
  -1.482000      0.0000000E+00
  -1.476000      1.6912158E-34
  -1.470000      1.5727659E-33
  -1.464000      7.7433890E-33
  -1.458000      2.6863255E-32
  -1.452000      7.3524997E-32
  -1.446000      1.6837769E-31
  -1.440000      3.3414001E-31
  -1.434000      5.8815987E-31
  -1.428000      9.3519208E-31
  -1.422000      1.3687334E-30
  -1.416000      1.8932785E-30
  -1.410000      2.5802936E-30
  -1.404000      3.6641562E-30
  -1.398000      5.6683064E-30
  -1.392000      9.5272045E-30
  -1.386000      1.6642057E-29
  -1.380000      2.8789953E-29
  -1.374000      4.7812809E-29
  -1.368000      7.5058467E-29
  -1.362000      1.1063488E-28
  -1.356000      1.5265218E-28
  -1.350000      1.9672911E-28
  -1.344000      2.3607488E-28
  -1.338000      2.6238046E-28
  -1.332000      2.6754316E-28
  -1.326000      2.4594927E-28
  -1.320000      1.9673436E-28
  -1.314000      1.2526327E-28
  -1.308000      4.3125890E-29
  -1.302000     -3.3722817E-29
  -1.296000     -8.8495686E-29
  -1.290000     -1.0798671E-28
  -1.284000     -8.6612801E-29
  -1.278000     -2.8718619E-29
  -1.272000      5.1907471E-29
  -1.266000      1.3568429E-28
  -1.260000      2.0358743E-28
  -1.254000      2.4497716E-28
  -1.248000      2.6522732E-28
  -1.242000      2.9142269E-28
  -1.236000      3.7465919E-28
  -1.230000      5.8793340E-28
  -1.224000      1.0190497E-27
  -1.218000      1.7583521E-27
  -1.212000      2.8814468E-27
  -1.206000      4.4276074E-27
  -1.200000      6.3754213E-27
  -1.194000      8.6184764E-27
  -1.188000      1.0945330E-26
  -1.182000      1.3029303E-26
  -1.176000      1.4434014E-26
  -1.170000      1.4639896E-26
  -1.164000      1.3094412E-26
  -1.158000      9.2850523E-27
  -1.152000      2.8292743E-27
  -1.146000     -6.4290762E-27
  -1.140000     -1.8331155E-26
  -1.134000     -3.2338394E-26
  -1.128000     -4.7506732E-26
  -1.122000     -6.2511458E-26
  -1.116000     -7.5727602E-26
  -1.110000     -8.5363316E-26
  -1.104000     -8.9635195E-26
  -1.098000     -8.6967009E-26
  -1.092000     -7.6188322E-26
  -1.086000     -5.6707895E-26
  -1.080000     -2.8638646E-26
  -1.074000      7.1432426E-27
  -1.068000      4.9013607E-26
  -1.062000      9.4688897E-26
  -1.056000      1.4137684E-25
  -1.050000      1.8597088E-25
  -1.044000      2.2526392E-25
  -1.038000      2.5615992E-25
  -1.032000      2.7586145E-25
  -1.026000      2.8202172E-25
  -1.020000      2.7285614E-25
  -1.014000      2.4721794E-25
  -1.008000      2.0464694E-25
  -1.002000      1.4540446E-25
 -0.9960000      7.0505054E-26
 -0.9900000     -1.8250262E-26
 -0.9840000     -1.1824118E-25
 -0.9780000     -2.2600687E-25
 -0.9720000     -3.3725221E-25
 -0.9660000     -4.4690149E-25
 -0.9600000     -5.4921610E-25
 -0.9540000     -6.3798855E-25
 -0.9480000     -7.0681336E-25
 -0.9420000     -7.4943063E-25
 -0.9360000     -7.6012024E-25
 -0.9300000     -7.3412747E-25
 -0.9240000     -6.6808586E-25
 -0.9180000     -5.6040767E-25
 -0.9120000     -4.1160612E-25
 -0.9060000     -2.2451963E-25
 -0.9000000     -4.4066648E-27
 -0.8940000      2.4111198E-25
 -0.8880000      5.0227854E-25
 -0.8820000      7.6759366E-25
 -0.8760000      1.0243673E-24
 -0.8700000      1.2593941E-24
 -0.8640000      1.4596986E-24
 -0.8580000      1.6132958E-24
 -0.8520000      1.7098884E-24
 -0.8460000      1.7414493E-24
 -0.8400000      1.7026320E-24
 -0.8340000      1.5909976E-24
 -0.8280000      1.4070490E-24
 -0.8220000      1.1541176E-24
 -0.8160000      8.3814065E-25
 -0.8100000      4.6738589E-25
 -0.8040000      5.2176863E-26
 -0.7980000     -3.9535677E-25
 -0.7920000     -8.6149222E-25
 -0.7860000     -1.3311137E-24
 -0.7800000     -1.7879357E-24
 -0.7740000     -2.2147960E-24
 -0.7680000     -2.5940758E-24
 -0.7620000     -2.9082631E-24
 -0.7560000     -3.1406829E-24
 -0.7500000     -3.2763577E-24
 -0.7440000     -3.3029642E-24
 -0.7380000     -3.2117914E-24
 -0.7320000     -2.9986256E-24
 -0.7260000     -2.6644463E-24
 -0.7200000     -2.2158470E-24
 -0.7140000     -1.6651033E-24
 -0.7080000     -1.0298335E-24
 -0.7020000     -3.3225170E-25
 -0.6960000      4.0195559E-25
 -0.6900000      1.1450472E-24
 -0.6840000      1.8688178E-24
 -0.6780000      2.5462129E-24
 -0.6720000      3.1528167E-24
 -0.6660000      3.6680695E-24
 -0.6600000      4.0761054E-24
 -0.6540000      4.3661491E-24
 -0.6480000      4.5324717E-24
 -0.6420000      4.5739421E-24
 -0.6360000      4.4932870E-24
 -0.6300000      4.2961692E-24
 -0.6240000      3.9902296E-24
 -0.6180000      3.5842148E-24
 -0.6120000      3.0873125E-24
 -0.6060000      2.5087498E-24
 -0.6000000      1.8577087E-24
 -0.5940000      1.1435323E-24
 -0.5880000      3.7618338E-25
 -0.5820000     -4.3313567E-25
 -0.5760000     -1.2713022E-24
 -0.5700000     -2.1226557E-24
 -0.5640000     -2.9685558E-24
 -0.5580000     -3.7872108E-24
 -0.5520000     -4.5538479E-24
 -0.5460000     -5.2412522E-24
 -0.5400000     -5.8206776E-24
 -0.5340000     -6.2630909E-24
 -0.5280000     -6.5406797E-24
 -0.5220000     -6.6285718E-24
 -0.5160000     -6.5066561E-24
 -0.5100000     -6.1614297E-24
 -0.5040000     -5.5877720E-24
 -0.4980000     -4.7905136E-24
 -0.4920000     -3.7856918E-24
 -0.4860000     -2.6013183E-24
 -0.4800000     -1.2775033E-24
 -0.4740000      1.3422455E-25
 -0.4680000      1.5725411E-24
 -0.4620000      2.9689628E-24
 -0.4560000      4.2514783E-24
 -0.4500000      5.3490441E-24
 -0.4440000      6.1966744E-24
 -0.4380000      6.7407470E-24
 -0.4320000      6.9440483E-24
 -0.4260000      6.7900398E-24
 -0.4200000      6.2858685E-24
 -0.4140000      5.4637098E-24
 -0.4080000      4.3802141E-24
 -0.4020000      3.1139953E-24
 -0.3960000      1.7613239E-24
 -0.3900000      4.3034995E-25
 -0.3840000     -7.6565587E-25
 -0.3780000     -1.7155048E-24
 -0.3720000     -2.3171679E-24
 -0.3660000     -2.4842230E-24
 -0.3600000     -2.1512454E-24
 -0.3540000     -1.2778277E-24
 -0.3480000      1.4897845E-25
 -0.3420000      2.1139261E-24
 -0.3360000      4.5745661E-24
 -0.3300000      7.4639565E-24
 -0.3240000      1.0695008E-23
 -0.3180000      1.4166288E-23
 -0.3120000      1.7769076E-23
 -0.3060000      2.1395254E-23
 -0.3000000      2.4945612E-23
 -0.2940000      2.8337998E-23
 -0.2880000      3.1514485E-23
 -0.2820000      3.4447050E-23
 -0.2760000      3.7140890E-23
 -0.2700000      3.9634956E-23
 -0.2640000      4.1999336E-23
 -0.2580000      4.4329531E-23
 -0.2520000      4.6737913E-23
 -0.2460000      4.9343246E-23
 -0.2400000      5.2259208E-23
 -0.2340000      5.5583152E-23
 -0.2280000      5.9386522E-23
 -0.2220000      6.3707832E-23
 -0.2160000      6.8549413E-23
 -0.2100000      7.3878042E-23
 -0.2040000      7.9629589E-23
 -0.1980000      8.5717140E-23
 -0.1920000      9.2041615E-23
 -0.1860000      9.8503755E-23
 -0.1800000      1.0501591E-22
 -0.1740000      1.1151263E-22
 -0.1680000      1.1795875E-22
 -0.1620000      1.2435403E-22
 -0.1560000      1.3073448E-22
 -0.1500000      1.3716967E-22
 -0.1440000      1.4375687E-22
 -0.1380000      1.5061247E-22
 -0.1320000      1.5786151E-22
 -0.1260000      1.6562627E-22
 -0.1200000      1.7401492E-22
 -0.1140000      1.8311087E-22
 -0.1080000      1.9296383E-22
 -0.1020000      2.0358343E-22
 -9.6000001E-02  2.1493514E-22
 -9.0000004E-02  2.2693981E-22
 -8.3999999E-02  2.3947631E-22
 -7.8000002E-02  2.5238720E-22
 -7.1999997E-02  2.6548782E-22
 -6.6000000E-02  2.7857741E-22
 -5.9999999E-02  2.9145207E-22
 -5.4000001E-02  3.0391822E-22
 -4.8000000E-02  3.1580589E-22
 -4.1999999E-02  3.2698009E-22
 -3.5999998E-02  3.3734964E-22
 -2.9999999E-02  3.4687246E-22
 -2.4000000E-02  3.5555700E-22
 -1.7999999E-02  3.6345960E-22
 -1.2000000E-02  3.7067759E-22
 -6.0000001E-03  3.7734060E-22
  0.0000000E+00  3.8359847E-22
  6.0000001E-03  3.8960987E-22
  1.2000000E-02  3.9553047E-22
  1.7999999E-02  4.0150304E-22
  2.4000000E-02  4.0765017E-22
  2.9999999E-02  4.1406961E-22
  3.5999998E-02  4.2083278E-22
  4.1999999E-02  4.2798549E-22
  4.8000000E-02  4.3555199E-22
  5.4000001E-02  4.4353905E-22
  5.9999999E-02  4.5194202E-22
  6.6000000E-02  4.6075010E-22
  7.1999997E-02  4.6995138E-22
  7.8000002E-02  4.7953660E-22
  8.3999999E-02  4.8950195E-22
  9.0000004E-02  4.9984938E-22
  9.6000001E-02  5.1058703E-22
  0.1020000      5.2172706E-22
  0.1080000      5.3328285E-22
  0.1140000      5.4526581E-22
  0.1200000      5.5768149E-22
  0.1260000      5.7052546E-22
  0.1320000      5.8378050E-22
  0.1380000      5.9741327E-22
  0.1440000      6.1137371E-22
  0.1500000      6.2559462E-22
  0.1560000      6.3999450E-22
  0.1620000      6.5448086E-22
  0.1680000      6.6895642E-22
  0.1740000      6.8332611E-22
  0.1800000      6.9750485E-22
  0.1860000      7.1142526E-22
  0.1920000      7.2504436E-22
  0.1980000      7.3834932E-22
  0.2040000      7.5135884E-22
  0.2100000      7.6412157E-22
  0.2160000      7.7671214E-22
  0.2220000      7.8922179E-22
  0.2280000      8.0174703E-22
  0.2340000      8.1437698E-22
  0.2400000      8.2717991E-22
  0.2460000      8.4019083E-22
  0.2520000      8.5340412E-22
  0.2580000      8.6676805E-22
  0.2640000      8.8018681E-22
  0.2700000      8.9352591E-22
  0.2760000      9.0662327E-22
  0.2820000      9.1930291E-22
  0.2880000      9.3139103E-22
  0.2940000      9.4272983E-22
  0.3000000      9.5319126E-22
  0.3060000      9.6268546E-22
  0.3120000      9.7116366E-22
  0.3180000      9.7861909E-22
  0.3240000      9.8507861E-22
  0.3300000      9.9059483E-22
  0.3360000      9.9523358E-22
  0.3420000      9.9906182E-22
  0.3480000      1.0021365E-21
  0.3540000      1.0044962E-21
  0.3600000      1.0061567E-21
  0.3660000      1.0071087E-21
  0.3720000      1.0073218E-21
  0.3780000      1.0067470E-21
  0.3840000      1.0053260E-21
  0.3900000      1.0029978E-21
  0.3960000      9.9970765E-22
  0.4020000      9.9541503E-22
  0.4080000      9.9010036E-22
  0.4140000      9.8377079E-22
  0.4200000      9.7646642E-22
  0.4260000      9.6826226E-22
  0.4320000      9.5927061E-22
  0.4380000      9.4964080E-22
  0.4440000      9.3955530E-22
  0.4500000      9.2922665E-22
  0.4560000      9.1888719E-22
  0.4620000      9.0878180E-22
  0.4680000      8.9915441E-22
  0.4740000      8.9023698E-22
  0.4800000      8.8223821E-22
  0.4860000      8.7533238E-22
  0.4920000      8.6965319E-22
  0.4980000      8.6529070E-22
  0.5040000      8.6229237E-22
  0.5100000      8.6066850E-22
  0.5160000      8.6040193E-22
  0.5220000      8.6145994E-22
  0.5280000      8.6380809E-22
  0.5340000      8.6742297E-22
  0.5400000      8.7230305E-22
  0.5460000      8.7847762E-22
  0.5520000      8.8601020E-22
  0.5580000      8.9499922E-22
  0.5640000      9.0557466E-22
  0.5700000      9.1789018E-22
  0.5760000      9.3211441E-22
  0.5820000      9.4841962E-22
  0.5880000      9.6696929E-22
  0.5940000      9.8790851E-22
  0.6000000      1.0113542E-21
  0.6060000      1.0373877E-21
  0.6120000      1.0660509E-21
  0.6180000      1.0973456E-21
  0.6240000      1.1312359E-21
  0.6300000      1.1676549E-21
  0.6360000      1.2065135E-21
  0.6420000      1.2477113E-21
  0.6480000      1.2911486E-21
  0.6540000      1.3367394E-21
  0.6600000      1.3844212E-21
  0.6660000      1.4341628E-21
  0.6720000      1.4859683E-21
  0.6780000      1.5398769E-21
  0.6840000      1.5959567E-21
  0.6900000      1.6542972E-21
  0.6960000      1.7149964E-21
  0.7020000      1.7781465E-21
  0.7080000      1.8438231E-21
  0.7140000      1.9120716E-21
  0.7200000      1.9829010E-21
  0.7260000      2.0562805E-21
  0.7320000      2.1321412E-21
  0.7380000      2.2103823E-21
  0.7440000      2.2908832E-21
  0.7500000      2.3735144E-21
  0.7560000      2.4581512E-21
  0.7620000      2.5446873E-21
  0.7680000      2.6330433E-21
  0.7740000      2.7231749E-21
  0.7800000      2.8150743E-21
  0.7860000      2.9087679E-21
  0.7920000      3.0043119E-21
  0.7980000      3.1017833E-21
  0.8040000      3.2012704E-21
  0.8100000      3.3028587E-21
  0.8160000      3.4066258E-21
  0.8220000      3.5126289E-21
  0.8280000      3.6209032E-21
  0.8340000      3.7314566E-21
  0.8400000      3.8442775E-21
  0.8460000      3.9593355E-21
  0.8520000      4.0765936E-21
  0.8580000      4.1960150E-21
  0.8640000      4.3175722E-21
  0.8700000      4.4412567E-21
  0.8760000      4.5670835E-21
  0.8820000      4.6950909E-21
  0.8880000      4.8253444E-21
  0.8940000      4.9579235E-21
  0.9000000      5.0929236E-21
  0.9060000      5.2304411E-21
  0.9120000      5.3705659E-21
  0.9180000      5.5133720E-21
  0.9240000      5.6589134E-21
  0.9300000      5.8072130E-21
  0.9360000      5.9582676E-21
  0.9420000      6.1120521E-21
  0.9480000      6.2685140E-21
  0.9540000      6.4275920E-21
  0.9600000      6.5892186E-21
  0.9660000      6.7533287E-21
  0.9720000      6.9198739E-21
  0.9780000      7.0888207E-21
  0.9840000      7.2601659E-21
  0.9900000      7.4339303E-21
  0.9960000      7.6101634E-21
   1.002000      7.7889378E-21
   1.008000      7.9703481E-21
   1.014000      8.1544927E-21
   1.020000      8.3414775E-21
   1.026000      8.5313979E-21
   1.032000      8.7243272E-21
   1.038000      8.9203173E-21
   1.044000      9.1193916E-21
   1.050000      9.3215355E-21
   1.056000      9.5267045E-21
   1.062000      9.7348237E-21
   1.068000      9.9457919E-21
   1.074000      1.0159500E-20
   1.080000      1.0375822E-20
   1.086000      1.0594646E-20
   1.092000      1.0815862E-20
   1.098000      1.1039388E-20
   1.104000      1.1265163E-20
   1.110000      1.1493157E-20
   1.116000      1.1723365E-20
   1.122000      1.1955810E-20
   1.128000      1.2190531E-20
   1.134000      1.2427584E-20
   1.140000      1.2667018E-20
   1.146000      1.2908880E-20
   1.152000      1.3153200E-20
   1.158000      1.3399987E-20
   1.164000      1.3649217E-20
   1.170000      1.3900841E-20
   1.176000      1.4154779E-20
   1.182000      1.4410923E-20
   1.188000      1.4669137E-20
   1.194000      1.4929276E-20
   1.200000      1.5191188E-20
   1.206000      1.5454729E-20
   1.212000      1.5719773E-20
   1.218000      1.5986222E-20
   1.224000      1.6254002E-20
   1.230000      1.6523075E-20
   1.236000      1.6793440E-20
   1.242000      1.7065122E-20
   1.248000      1.7338153E-20
   1.254000      1.7612586E-20
   1.260000      1.7888458E-20
   1.266000      1.8165802E-20
   1.272000      1.8444620E-20
   1.278000      1.8724897E-20
   1.284000      1.9006585E-20
   1.290000      1.9289597E-20
   1.296000      1.9573827E-20
   1.302000      1.9859146E-20
   1.308000      2.0145412E-20
   1.314000      2.0432469E-20
   1.320000      2.0720163E-20
   1.326000      2.1008331E-20
   1.332000      2.1296826E-20
   1.338000      2.1585498E-20
   1.344000      2.1874206E-20
   1.350000      2.2162825E-20
   1.356000      2.2451217E-20
   1.362000      2.2739287E-20
   1.368000      2.3026936E-20
   1.374000      2.3314082E-20
   1.380000      2.3600654E-20
   1.386000      2.3886595E-20
   1.392000      2.4171859E-20
   1.398000      2.4456391E-20
   1.404000      2.4740142E-20
   1.410000      2.5023060E-20
   1.416000      2.5305087E-20
   1.422000      2.5586146E-20
   1.428000      2.5866161E-20
   1.434000      2.6145037E-20
   1.440000      2.6422679E-20
   1.446000      2.6698970E-20
   1.452000      2.6973807E-20
   1.458000      2.7247068E-20
   1.464000      2.7518658E-20
   1.470000      2.7788467E-20
   1.476000      2.8056412E-20
   1.482000      2.8322396E-20
   1.488000      2.8586347E-20
   1.494000      2.8848192E-20
   1.500000      2.9107849E-20
   1.506000      2.9365241E-20
   1.512000      2.9620291E-20
   1.518000      2.9872920E-20
   1.524000      3.0123045E-20
   1.530000      3.0370599E-20
   1.536000      3.0615499E-20
   1.542000      3.0857682E-20
   1.548000      3.1097089E-20
   1.554000      3.1333673E-20
   1.560000      3.1567380E-20
   1.566000      3.1798177E-20
   1.572000      3.2026016E-20
   1.578000      3.2250884E-20
   1.584000      3.2472755E-20
   1.590000      3.2691619E-20
   1.596000      3.2907471E-20
   1.602000      3.3120321E-20
   1.608000      3.3330186E-20
   1.614000      3.3537094E-20
   1.620000      3.3741072E-20
   1.626000      3.3942154E-20
   1.632000      3.4140397E-20
   1.638000      3.4335834E-20
   1.644000      3.4528522E-20
   1.650000      3.4718502E-20
   1.656000      3.4905830E-20
   1.662000      3.5090546E-20
   1.668000      3.5272684E-20
   1.674000      3.5452276E-20
   1.680000      3.5629348E-20
   1.686000      3.5803922E-20
   1.692000      3.5976017E-20
   1.698000      3.6145657E-20
   1.704000      3.6312883E-20
   1.710000      3.6477722E-20
   1.716000      3.6640214E-20
   1.722000      3.6800419E-20
   1.728000      3.6958391E-20
   1.734000      3.7114195E-20
   1.740000      3.7267892E-20
   1.746000      3.7419570E-20
   1.752000      3.7569316E-20
   1.758000      3.7717216E-20
   1.764000      3.7863391E-20
   1.770000      3.8007957E-20
   1.776000      3.8151063E-20
   1.782000      3.8292856E-20
   1.788000      3.8433542E-20
   1.794000      3.8573338E-20
   1.800000      3.8712469E-20
   1.806000      3.8851210E-20
   1.812000      3.8989821E-20
   1.818000      3.9128599E-20
   1.824000      3.9267795E-20
   1.830000      3.9407663E-20
   1.836000      3.9548439E-20
   1.842000      3.9690307E-20
   1.848000      3.9833419E-20
   1.854000      3.9977868E-20
   1.860000      4.0123737E-20
   1.866000      4.0271049E-20
   1.872000      4.0419803E-20
   1.878000      4.0569975E-20
   1.884000      4.0721549E-20
   1.890000      4.0874490E-20
   1.896000      4.1028830E-20
   1.902000      4.1184599E-20
   1.908000      4.1341892E-20
   1.914000      4.1500860E-20
   1.920000      4.1661714E-20
   1.926000      4.1824733E-20
   1.932000      4.1990263E-20
   1.938000      4.2158678E-20
   1.944000      4.2330409E-20
   1.950000      4.2505923E-20
   1.956000      4.2685664E-20
   1.962000      4.2870083E-20
   1.968000      4.3059607E-20
   1.974000      4.3254628E-20
   1.980000      4.3455455E-20
   1.986000      4.3662393E-20
   1.992000      4.3875650E-20
   1.998000      4.4095412E-20
   2.004000      4.4321814E-20
   2.010000      4.4554985E-20
   2.016000      4.4795016E-20
   2.022000      4.5042014E-20
   2.028000      4.5296116E-20
   2.034000      4.5557476E-20
   2.040000      4.5826294E-20
   2.046000      4.6102837E-20
   2.052000      4.6387378E-20
   2.058000      4.6680254E-20
   2.064000      4.6981830E-20
   2.070000      4.7292462E-20
   2.076000      4.7612513E-20
   2.082000      4.7942361E-20
   2.088000      4.8282329E-20
   2.094000      4.8632704E-20
   2.100000      4.8993766E-20
   2.106000      4.9365709E-20
   2.112000      4.9748697E-20
   2.118000      5.0142820E-20
   2.124000      5.0548154E-20
   2.130000      5.0964733E-20
   2.136000      5.1392576E-20
   2.142000      5.1831712E-20
   2.148000      5.2282144E-20
   2.154000      5.2743944E-20
   2.160000      5.3217185E-20
   2.166000      5.3702003E-20
   2.172000      5.4198538E-20
   2.178000      5.4706999E-20
   2.184000      5.5227586E-20
   2.190000      5.5760536E-20
   2.196000      5.6306100E-20
   2.202000      5.6864531E-20
   2.208000      5.7436029E-20
   2.214000      5.8020813E-20
   2.220000      5.8619059E-20
   2.226000      5.9230875E-20
   2.232000      5.9856405E-20
   2.238000      6.0495686E-20
   2.244000      6.1148771E-20
   2.250000      6.1815692E-20
   2.256000      6.2496442E-20
   2.262000      6.3191009E-20
   2.268000      6.3899386E-20
   2.274000      6.4621540E-20
   2.280000      6.5357466E-20
   2.286000      6.6107131E-20
   2.292000      6.6870554E-20
   2.298000      6.7647709E-20
   2.304000      6.8438597E-20
   2.310000      6.9243237E-20
   2.316000      7.0061590E-20
   2.322000      7.0893631E-20
   2.328000      7.1739294E-20
   2.334000      7.2598521E-20
   2.340000      7.3471229E-20
   2.346000      7.4357307E-20
   2.352000      7.5256640E-20
   2.358000      7.6169098E-20
   2.364000      7.7094519E-20
   2.370000      7.8032749E-20
   2.376000      7.8983612E-20
   2.382000      7.9946929E-20
   2.388000      8.0922517E-20
   2.394000      8.1910171E-20
   2.400000      8.2909754E-20
   2.406000      8.3921034E-20
   2.412000      8.4943843E-20
   2.418000      8.5978012E-20
   2.424000      8.7023349E-20
   2.430000      8.8079646E-20
   2.436000      8.9146663E-20
   2.442000      9.0224163E-20
   2.448000      9.1311931E-20
   2.454000      9.2409710E-20
   2.460000      9.3517266E-20
   2.466000      9.4634341E-20
   2.472000      9.5760754E-20
   2.478000      9.6896228E-20
   2.484000      9.8040568E-20
   2.490000      9.9193554E-20
   2.496000      1.0035492E-19
   2.502000      1.0152453E-19
   2.508000      1.0270213E-19
   2.514000      1.0388755E-19
   2.520000      1.0508057E-19
   2.526000      1.0628098E-19
   2.532000      1.0748857E-19
   2.538000      1.0870310E-19
   2.544000      1.0992430E-19
   2.550000      1.1115192E-19
   2.556000      1.1238555E-19
   2.562000      1.1362493E-19
   2.568000      1.1486971E-19
   2.574000      1.1611942E-19
   2.580000      1.1737380E-19
   2.586000      1.1863241E-19
   2.592000      1.1989485E-19
   2.598000      1.2116081E-19
   2.604000      1.2242985E-19
   2.610000      1.2370163E-19
   2.616000      1.2497580E-19
   2.622000      1.2625201E-19
   2.628000      1.2752992E-19
   2.634000      1.2880924E-19
   2.640000      1.3008965E-19
   2.646000      1.3137089E-19
   2.652000      1.3265269E-19
   2.658000      1.3393473E-19
   2.664000      1.3521677E-19
   2.670000      1.3649858E-19
   2.676000      1.3777987E-19
   2.682000      1.3906045E-19
   2.688000      1.4034002E-19
   2.694000      1.4161843E-19
   2.700000      1.4289540E-19
   2.706000      1.4417078E-19
   2.712000      1.4544432E-19
   2.718000      1.4671578E-19
   2.724000      1.4798500E-19
   2.730000      1.4925169E-19
   2.736000      1.5051566E-19
   2.742000      1.5177664E-19
   2.748000      1.5303442E-19
   2.754000      1.5428874E-19
   2.760000      1.5553942E-19
   2.766000      1.5678622E-19
   2.772000      1.5802891E-19
   2.778000      1.5926736E-19
   2.784000      1.6050131E-19
   2.790000      1.6173064E-19
   2.796000      1.6295508E-19
   2.802000      1.6417450E-19
   2.808000      1.6538874E-19
   2.814000      1.6659754E-19
   2.820000      1.6780081E-19
   2.826000      1.6899839E-19
   2.832000      1.7019016E-19
   2.838000      1.7137603E-19
   2.844000      1.7255590E-19
   2.850000      1.7372966E-19
   2.856000      1.7489727E-19
   2.862000      1.7605867E-19
   2.868000      1.7721393E-19
   2.874000      1.7836295E-19
   2.880000      1.7950586E-19
   2.886000      1.8064262E-19
   2.892000      1.8177328E-19
   2.898000      1.8289788E-19
   2.904000      1.8401640E-19
   2.910000      1.8512886E-19
   2.916000      1.8623523E-19
   2.922000      1.8733548E-19
   2.928000      1.8842960E-19
   2.934000      1.8951752E-19
   2.940000      1.9059928E-19
   2.946000      1.9167483E-19
   2.952000      1.9274421E-19
   2.958000      1.9380731E-19
   2.964000      1.9486431E-19
   2.970000      1.9591517E-19
   2.976000      1.9695994E-19
   2.982000      1.9799872E-19
   2.988000      1.9903151E-19
   2.994000      2.0005843E-19
   3.000000      2.0107955E-19
   3.006000      2.0209493E-19
   3.012000      2.0310471E-19
   3.018000      2.0410892E-19
   3.024000      2.0510770E-19
   3.030000      2.0610112E-19
   3.036000      2.0708929E-19
   3.042000      2.0807235E-19
   3.048000      2.0905038E-19
   3.054000      2.1002355E-19
   3.060000      2.1099194E-19
   3.066000      2.1195576E-19
   3.072000      2.1291514E-19
   3.078000      2.1387029E-19
   3.084000      2.1482140E-19
   3.090000      2.1576862E-19
   3.096000      2.1671225E-19
   3.102000      2.1765249E-19
   3.108000      2.1858951E-19
   3.114000      2.1952365E-19
   3.120000      2.2045508E-19
   3.126000      2.2138401E-19
   3.132000      2.2231076E-19
   3.138000      2.2323545E-19
   3.144000      2.2415827E-19
   3.150000      2.2507936E-19
   3.156000      2.2599885E-19
   3.162000      2.2691679E-19
   3.168000      2.2783328E-19
   3.174000      2.2874829E-19
   3.180000      2.2966194E-19
   3.186000      2.3057417E-19
   3.192000      2.3148505E-19
   3.198000      2.3239461E-19
   3.204000      2.3330280E-19
   3.210000      2.3420978E-19
   3.216000      2.3511557E-19
   3.222000      2.3602022E-19
   3.228000      2.3692386E-19
   3.234000      2.3782655E-19
   3.240000      2.3872831E-19
   3.246000      2.3962929E-19
   3.252000      2.4052952E-19
   3.258000      2.4142910E-19
   3.264000      2.4232814E-19
   3.270000      2.4322667E-19
   3.276000      2.4412475E-19
   3.282000      2.4502235E-19
   3.288000      2.4591953E-19
   3.294000      2.4681624E-19
   3.300000      2.4771252E-19
   3.306000      2.4860831E-19
   3.312000      2.4950360E-19
   3.318000      2.5039822E-19
   3.324000      2.5129225E-19
   3.330000      2.5218560E-19
   3.336000      2.5307823E-19
   3.342000      2.5397009E-19
   3.348000      2.5486109E-19
   3.354000      2.5575111E-19
   3.360000      2.5664018E-19
   3.366000      2.5752816E-19
   3.372000      2.5841505E-19
   3.378000      2.5930080E-19
   3.384000      2.6018524E-19
   3.390000      2.6106836E-19
   3.396000      2.6195006E-19
   3.402000      2.6283013E-19
   3.408000      2.6370851E-19
   3.414000      2.6458499E-19
   3.420000      2.6545942E-19
   3.426000      2.6633168E-19
   3.432000      2.6720152E-19
   3.438000      2.6806884E-19
   3.444000      2.6893337E-19
   3.450000      2.6979499E-19
   3.456000      2.7065342E-19
   3.462000      2.7150852E-19
   3.468000      2.7236002E-19
   3.474000      2.7320778E-19
   3.480000      2.7405143E-19
   3.486000      2.7489088E-19
   3.492000      2.7572579E-19
   3.498000      2.7655592E-19
   3.504000      2.7738098E-19
   3.510000      2.7820080E-19
   3.516000      2.7901503E-19
   3.522000      2.7982347E-19
   3.528000      2.8062575E-19
   3.534000      2.8142173E-19
   3.540000      2.8221104E-19
   3.546000      2.8299345E-19
   3.552000      2.8376876E-19
   3.558000      2.8453677E-19
   3.564000      2.8529710E-19
   3.570000      2.8604976E-19
   3.576000      2.8679443E-19
   3.582000      2.8753106E-19
   3.588000      2.8825936E-19
   3.594000      2.8897917E-19
   3.600000      2.8969031E-19
   3.606000      2.9039253E-19
   3.612000      2.9108563E-19
   3.618000      2.9176927E-19
   3.624000      2.9244332E-19
   3.630000      2.9310744E-19
   3.636000      2.9376146E-19
   3.642000      2.9440501E-19
   3.648000      2.9503772E-19
   3.654000      2.9565937E-19
   3.660000      2.9626978E-19
   3.666000      2.9686858E-19
   3.672000      2.9745562E-19
   3.678000      2.9803077E-19
   3.684000      2.9859390E-19
   3.690000      2.9914491E-19
   3.696000      2.9968371E-19
   3.702000      3.0021018E-19
   3.708000      3.0072438E-19
   3.714000      3.0122614E-19
   3.720000      3.0171547E-19
   3.726000      3.0219247E-19
   3.732000      3.0265706E-19
   3.738000      3.0310930E-19
   3.744000      3.0354913E-19
   3.750000      3.0397667E-19
   3.756000      3.0439187E-19
   3.762000      3.0479491E-19
   3.768000      3.0518578E-19
   3.774000      3.0556468E-19
   3.780000      3.0593169E-19
   3.786000      3.0628704E-19
   3.792000      3.0663089E-19
   3.798000      3.0696342E-19
   3.804000      3.0728475E-19
   3.810000      3.0759510E-19
   3.816000      3.0789477E-19
   3.822000      3.0818384E-19
   3.828000      3.0846263E-19
   3.834000      3.0873128E-19
   3.840000      3.0899003E-19
   3.846000      3.0923912E-19
   3.852000      3.0947869E-19
   3.858000      3.0970904E-19
   3.864000      3.0993031E-19
   3.870000      3.1014279E-19
   3.876000      3.1034674E-19
   3.882000      3.1054247E-19
   3.888000      3.1073035E-19
   3.894000      3.1091059E-19
   3.900000      3.1108376E-19
   3.906000      3.1125038E-19
   3.912000      3.1141086E-19
   3.918000      3.1156580E-19
   3.924000      3.1171593E-19
   3.930000      3.1186177E-19
   3.936000      3.1200395E-19
   3.942000      3.1214317E-19
   3.948000      3.1228004E-19
   3.954000      3.1241526E-19
   3.960000      3.1254942E-19
   3.966000      3.1268311E-19
   3.972000      3.1281704E-19
   3.978000      3.1295171E-19
   3.984000      3.1308781E-19
   3.990000      3.1322592E-19
   3.996000      3.1336675E-19
   4.002000      3.1351099E-19
   4.008000      3.1365929E-19
   4.014000      3.1381242E-19
   4.020000      3.1397101E-19
   4.026000      3.1413603E-19
   4.032000      3.1430808E-19
   4.038000      3.1448802E-19
   4.044000      3.1467669E-19
   4.050000      3.1487493E-19
   4.056000      3.1508351E-19
   4.062000      3.1530331E-19
   4.068000      3.1553505E-19
   4.074000      3.1577961E-19
   4.080000      3.1603772E-19
   4.086000      3.1631014E-19
   4.092000      3.1659759E-19
   4.098000      3.1690070E-19
   4.104000      3.1722028E-19
   4.110000      3.1755704E-19
   4.116000      3.1791169E-19
   4.122000      3.1828488E-19
   4.128000      3.1867743E-19
   4.134000      3.1908999E-19
   4.140000      3.1952335E-19
   4.146000      3.1997822E-19
   4.152000      3.2045533E-19
   4.158000      3.2095546E-19
   4.164000      3.2147932E-19
   4.170000      3.2202767E-19
   4.176000      3.2260111E-19
   4.182000      3.2320038E-19
   4.188000      3.2382614E-19
   4.194000      3.2447899E-19
   4.200000      3.2515958E-19
   4.206000      3.2586837E-19
   4.212000      3.2660616E-19
   4.218000      3.2737330E-19
   4.224000      3.2817041E-19
   4.230000      3.2899801E-19
   4.236000      3.2985657E-19
   4.242000      3.3074662E-19
   4.248000      3.3166859E-19
   4.254000      3.3262295E-19
   4.260000      3.3361029E-19
   4.266000      3.3463095E-19
   4.272000      3.3568530E-19
   4.278000      3.3677371E-19
   4.284000      3.3789653E-19
   4.290000      3.3905402E-19
   4.296000      3.4024635E-19