  -1.500000      0.0000000E+00
  -1.494000      0.0000000E+00
  -1.488000      0.0000000E+00
  -1.482000      0.0000000E+00
  -1.476000      3.6955703E-35
  -1.470000      4.1514948E-34
  -1.464000      2.4130723E-33
  -1.458000      9.6237502E-33
  -1.452000      2.9477243E-32
  -1.446000      7.3633860E-32
  -1.440000      1.5570238E-31
  -1.434000      2.8626548E-31
  -1.428000      4.6895491E-31
  -1.422000      7.0614960E-31
  -1.416000      1.0256278E-30
  -1.410000      1.5358445E-30
  -1.404000      2.5038735E-30
  -1.398000      4.4262647E-30
  -1.392000      8.0349301E-30
  -1.386000      1.4160258E-29
  -1.380000      2.3379673E-29
  -1.374000      3.5429082E-29
  -1.368000      4.8454315E-29
  -1.362000      5.8317411E-29
  -1.356000      5.8308564E-29
  -1.350000      3.9685005E-29
  -1.344000     -6.6072931E-30
  -1.338000     -8.6924086E-29
  -1.332000     -2.0094616E-28
  -1.326000     -3.3757199E-28
  -1.320000     -4.7195583E-28
  -1.314000     -5.6513747E-28
  -1.308000     -5.6744926E-28
  -1.302000     -4.2615037E-28
  -1.296000     -9.6646704E-29
  -1.290000      4.4451633E-28
  -1.284000      1.1875840E-27
  -1.278000      2.0814149E-27
  -1.272000      3.0316425E-27
  -1.266000      3.9063930E-27
  -1.260000      4.5491263E-27
  -1.254000      4.7965659E-27
  -1.248000      4.4986080E-27
  -1.242000      3.5368490E-27
  -1.236000      1.8390564E-27
  -1.230000     -6.1166649E-28
  -1.224000     -3.7725096E-27
  -1.218000     -7.5392970E-27
  -1.212000     -1.1744608E-26
  -1.206000     -1.6153075E-26
  -1.200000     -2.0452837E-26
  -1.194000     -2.4245142E-26
  -1.188000     -2.7037588E-26
  -1.182000     -2.8249879E-26
  -1.176000     -2.7242596E-26
  -1.170000     -2.3378286E-26
  -1.164000     -1.6119048E-26
  -1.158000     -5.1554756E-27
  -1.152000      9.4495945E-27
  -1.146000      2.7130877E-26
  -1.140000      4.6739836E-26
  -1.134000      6.6549409E-26
  -1.128000      8.4370387E-26
  -1.122000      9.7785971E-26
  -1.116000      1.0448374E-25
  -1.110000      1.0263690E-25
  -1.104000      9.1264773E-26
  -1.098000      7.0494694E-26
  -1.092000      4.1657409E-26
  -1.086000      7.1763647E-27
  -1.080000     -2.9747273E-26
  -1.074000     -6.5606338E-26
  -1.068000     -9.7129879E-26
  -1.062000     -1.2178871E-25
  -1.056000     -1.3815995E-25
  -1.050000     -1.4607397E-25
  -1.044000     -1.4651416E-25
  -1.038000     -1.4129402E-25
  -1.032000     -1.3258481E-25
  -1.026000     -1.2239909E-25
  -1.020000     -1.1214015E-25
  -1.014000     -1.0230908E-25
  -1.008000     -9.2420429E-26
  -1.002000     -8.1130363E-26
 -0.9960000     -6.6536399E-26
 -0.9900000     -4.6578828E-26
 -0.9840000     -1.9463901E-26
 -0.9780000      1.5962092E-26
 -0.9720000      5.9935803E-26
 -0.9660000      1.1161973E-25
 -0.9600000      1.6906615E-25
 -0.9540000      2.2929162E-25
 -0.9480000      2.8845002E-25
 -0.9420000      3.4209333E-25
 -0.9360000      3.8551492E-25
 -0.9300000      4.1416120E-25
 -0.9240000      4.2408699E-25
 -0.9180000      4.1241143E-25
 -0.9120000      3.7770944E-25
 -0.9060000      3.2027058E-25
 -0.9000000      2.4216040E-25
 -0.8940000      1.4704954E-25
 -0.8880000      3.9815434E-26
 -0.8820000     -7.4029394E-26
 -0.8760000     -1.8898769E-25
 -0.8700000     -3.0018586E-25
 -0.8640000     -4.0382298E-25
 -0.8580000     -4.9736827E-25
 -0.8520000     -5.7946522E-25
 -0.8460000     -6.4956074E-25
 -0.8400000     -7.0733504E-25
 -0.8340000     -7.5205310E-25
 -0.8280000     -7.8197814E-25
 -0.8220000     -7.9398766E-25
 -0.8160000     -7.8349828E-25
 -0.8100000     -7.4476141E-25
 -0.8040000     -6.7152983E-25
 -0.7980000     -5.5803424E-25
 -0.7920000     -4.0014757E-25
 -0.7860000     -1.9657110E-25
 -0.7800000      5.0152772E-26
 -0.7740000      3.3299589E-25
 -0.7680000      6.4033289E-25
 -0.7620000      9.5646653E-25
 -0.7560000      1.2628023E-24
 -0.7500000      1.5395757E-24
 -0.7440000      1.7679290E-24
 -0.7380000      1.9320485E-24
 -0.7320000      2.0210303E-24
 -0.7260000      2.0301610E-24
 -0.7200000      1.9613776E-24
 -0.7140000      1.8228018E-24
 -0.7080000      1.6274052E-24
 -0.7020000      1.3910120E-24
 -0.6960000      1.1299647E-24
 -0.6900000      8.5883218E-25
 -0.6840000      5.8852746E-25
 -0.6780000      3.2510469E-25
 -0.6720000      6.9392994E-26
 -0.6660000     -1.8253228E-25
 -0.6600000     -4.3816604E-25
 -0.6540000     -7.0689663E-25
 -0.6480000     -9.9810005E-25
 -0.6420000     -1.3192644E-24
 -0.6360000     -1.6743681E-24
 -0.6300000     -2.0626737E-24
 -0.6240000     -2.4780312E-24
 -0.6180000     -2.9087329E-24
 -0.6120000     -3.3379012E-24
 -0.6060000     -3.7443654E-24
 -0.6000000     -4.1039435E-24
 -0.5940000     -4.3910250E-24
 -0.5880000     -4.5803327E-24
 -0.5820000     -4.6487254E-24
 -0.5760000     -4.5769138E-24
 -0.5700000     -4.3509379E-24
 -0.5640000     -3.9633184E-24
 -0.5580000     -3.4137912E-24
 -0.5520000     -2.7095836E-24
 -0.5460000     -1.8652204E-24
 -0.5400000     -9.0190250E-25
 -0.5340000      1.5350842E-25
 -0.5280000      1.2698160E-24
 -0.5220000      2.4130512E-24
 -0.5160000      3.5481792E-24
 -0.5100000      4.6408655E-24
 -0.5040000      5.6591891E-24
 -0.4980000      6.5751935E-24
 -0.4920000      7.3661481E-24
 -0.4860000      8.0153719E-24
 -0.4800000      8.5125294E-24
 -0.4740000      8.8532858E-24
 -0.4680000      9.0383020E-24
 -0.4620000      9.0716645E-24
 -0.4560000      8.9588346E-24
 -0.4500000      8.7044159E-24
 -0.4440000      8.3099641E-24
 -0.4380000      7.7721006E-24
 -0.4320000      7.0811594E-24
 -0.4260000      6.2204526E-24
 -0.4200000      5.1661775E-24
 -0.4140000      3.8877961E-24
 -0.4080000      2.3487775E-24
 -0.4020000      5.0745810E-25
 -0.3960000     -1.6821007E-24
 -0.3900000     -4.2693121E-24
 -0.3840000     -7.3062861E-24
 -0.3780000     -1.0846897E-23
 -0.3720000     -1.4945582E-23
 -0.3660000     -1.9655609E-23
 -0.3600000     -2.5026806E-23
 -0.3540000     -3.1102763E-23
 -0.3480000     -3.7917688E-23
 -0.3420000     -4.5493280E-23
 -0.3360000     -5.3835989E-23
 -0.3300000     -6.2935235E-23
 -0.3240000     -7.2762883E-23
 -0.3180000     -8.3274265E-23
 -0.3120000     -9.4410854E-23
 -0.3060000     -1.0610438E-22
 -0.3000000     -1.1828206E-22
 -0.2940000     -1.3087197E-22
 -0.2880000     -1.4380879E-22
 -0.2820000     -1.5703792E-22
 -0.2760000     -1.7051889E-22
 -0.2700000     -1.8422661E-22
 -0.2640000     -1.9815098E-22
 -0.2580000     -2.1229489E-22
 -0.2520000     -2.2667104E-22
 -0.2460000     -2.4129791E-22
 -0.2400000     -2.5619559E-22
 -0.2340000     -2.7138234E-22
 -0.2280000     -2.8687198E-22
 -0.2220000     -3.0267230E-22
 -0.2160000     -3.1878556E-22
 -0.2100000     -3.3521010E-22
 -0.2040000     -3.5194321E-22
 -0.1980000     -3.6898513E-22
 -0.1920000     -3.8634305E-22
 -0.1860000     -4.0403423E-22
 -0.1800000     -4.2208895E-22
 -0.1740000     -4.4055092E-22
 -0.1680000     -4.5947606E-22
 -0.1620000     -4.7892955E-22
 -0.1560000     -4.9898171E-22
 -0.1500000     -5.1970247E-22
 -0.1440000     -5.4115626E-22
 -0.1380000     -5.6339754E-22
 -0.1320000     -5.8646777E-22
 -0.1260000     -6.1039295E-22
 -0.1200000     -6.3518328E-22
 -0.1140000     -6.6083401E-22
 -0.1080000     -6.8732600E-22
 -0.1020000     -7.1462609E-22
 -9.6000001E-02 -7.4268773E-22
 -9.0000004E-02 -7.7144962E-22
 -8.3999999E-02 -8.0083478E-22
 -7.8000002E-02 -8.3074950E-22
 -7.1999997E-02 -8.6108199E-22
 -6.6000000E-02 -8.9170413E-22
 -5.9999999E-02 -9.2247360E-22
 -5.4000001E-02 -9.5323831E-22
 -4.8000000E-02 -9.8384400E-22
 -4.1999999E-02 -1.0141413E-21
 -3.5999998E-02 -1.0439950E-21
 -2.9999999E-02 -1.0732906E-21
 -2.4000000E-02 -1.1019407E-21
 -1.7999999E-02 -1.1298874E-21
 -1.2000000E-02 -1.1571040E-21
 -6.0000001E-03 -1.1835904E-21
  0.0000000E+00 -1.2093700E-21
  6.0000001E-03 -1.2344811E-21
  1.2000000E-02 -1.2589721E-21
  1.7999999E-02 -1.2828926E-21
  2.4000000E-02 -1.3062894E-21
  2.9999999E-02 -1.3292024E-21
  3.5999998E-02 -1.3516615E-21
  4.1999999E-02 -1.3736875E-21
  4.8000000E-02 -1.3952929E-21
  5.4000001E-02 -1.4164827E-21
  5.9999999E-02 -1.4372585E-21
  6.6000000E-02 -1.4576194E-21
  7.1999997E-02 -1.4775635E-21
  7.8000002E-02 -1.4970898E-21
  8.3999999E-02 -1.5161984E-21
  9.0000004E-02 -1.5348901E-21
  9.6000001E-02 -1.5531653E-21
  0.1020000     -1.5710252E-21
  0.1080000     -1.5884698E-21
  0.1140000     -1.6054986E-21
  0.1200000     -1.6221107E-21
  0.1260000     -1.6383054E-21
  0.1320000     -1.6540834E-21
  0.1380000     -1.6694473E-21
  0.1440000     -1.6844011E-21
  0.1500000     -1.6989522E-21
  0.1560000     -1.7131096E-21
  0.1620000     -1.7268853E-21
  0.1680000     -1.7402959E-21
  0.1740000     -1.7533620E-21
  0.1800000     -1.7661134E-21
  0.1860000     -1.7785892E-21
  0.1920000     -1.7908422E-21
  0.1980000     -1.8029403E-21
  0.2040000     -1.8149671E-21
  0.2100000     -1.8270188E-21
  0.2160000     -1.8392028E-21
  0.2220000     -1.8516309E-21
  0.2280000     -1.8644124E-21
  0.2340000     -1.8776489E-21
  0.2400000     -1.8914274E-21
  0.2460000     -1.9058171E-21
  0.2520000     -1.9208683E-21
  0.2580000     -1.9366140E-21
  0.2640000     -1.9530720E-21
  0.2700000     -1.9702489E-21
  0.2760000     -1.9881470E-21
  0.2820000     -2.0067626E-21
  0.2880000     -2.0260903E-21
  0.2940000     -2.0461185E-21
  0.3000000     -2.0668247E-21
  0.3060000     -2.0881702E-21
  0.3120000     -2.1100909E-21
  0.3180000     -2.1324920E-21
  0.3240000     -2.1552447E-21
  0.3300000     -2.1781834E-21
  0.3360000     -2.2011090E-21
  0.3420000     -2.2237961E-21
  0.3480000     -2.2459977E-21
  0.3540000     -2.2674580E-21
  0.3600000     -2.2879159E-21
  0.3660000     -2.3071182E-21
  0.3720000     -2.3248220E-21
  0.3780000     -2.3408002E-21
  0.3840000     -2.3548431E-21
  0.3900000     -2.3667616E-21
  0.3960000     -2.3763847E-21
  0.4020000     -2.3835599E-21
  0.4080000     -2.3881512E-21
  0.4140000     -2.3900406E-21
  0.4200000     -2.3891258E-21
  0.4260000     -2.3853199E-21
  0.4320000     -2.3785532E-21
  0.4380000     -2.3687720E-21
  0.4440000     -2.3559408E-21
  0.4500000     -2.3400404E-21
  0.4560000     -2.3210690E-21
  0.4620000     -2.2990364E-21
  0.4680000     -2.2739635E-21
  0.4740000     -2.2458747E-21
  0.4800000     -2.2147929E-21
  0.4860000     -2.1807322E-21
  0.4920000     -2.1436959E-21
  0.4980000     -2.1036712E-21
  0.5040000     -2.0606283E-21
  0.5100000     -2.0145243E-21
  0.5160000     -1.9653070E-21
  0.5220000     -1.9129206E-21
  0.5280000     -1.8573131E-21
  0.5340000     -1.7984439E-21
  0.5400000     -1.7362879E-21
  0.5460000     -1.6708369E-21
  0.5520000     -1.6021014E-21
  0.5580000     -1.5301024E-21
  0.5640000     -1.4548666E-21
  0.5700000     -1.3764185E-21
  0.5760000     -1.2947718E-21
  0.5820000     -1.2099255E-21
  0.5880000     -1.1218606E-21
  0.5940000     -1.0305431E-21
  0.6000000     -9.3592911E-22
  0.6060000     -8.3797284E-22
  0.6120000     -7.3663781E-22
  0.6180000     -6.3190646E-22
  0.6240000     -5.2379031E-22
  0.6300000     -4.1233719E-22
  0.6360000     -2.9763661E-22
  0.6420000     -1.7982092E-22
  0.6480000     -5.9064477E-23
  0.6540000      6.4420578E-23
  0.6600000      1.9039091E-22
  0.6660000      3.1858005E-22
  0.6720000      4.4870848E-22
  0.6780000      5.8049434E-22
  0.6840000      7.1366290E-22
  0.6900000      8.4795747E-22
  0.6960000      9.8314727E-22
  0.7020000      1.1190335E-21
  0.7080000      1.2554551E-21
  0.7140000      1.3922901E-21
  0.7200000      1.5294557E-21
  0.7260000      1.6669078E-21
  0.7320000      1.8046383E-21
  0.7380000      1.9426718E-21
  0.7440000      2.0810630E-21
  0.7500000      2.2198916E-21
  0.7560000      2.3592595E-21
  0.7620000      2.4992858E-21
  0.7680000      2.6400978E-21
  0.7740000      2.7818298E-21
  0.7800000      2.9246142E-21
  0.7860000      3.0685741E-21
  0.7920000      3.2138152E-21
  0.7980000      3.3604220E-21
  0.8040000      3.5084518E-21
  0.8100000      3.6579316E-21
  0.8160000      3.8088553E-21
  0.8220000      3.9611874E-21
  0.8280000      4.1148621E-21
  0.8340000      4.2697948E-21
  0.8400000      4.4258872E-21
  0.8460000      4.5830342E-21
  0.8520000      4.7411355E-21
  0.8580000      4.9001008E-21
  0.8640000      5.0598513E-21
  0.8700000      5.2203255E-21
  0.8760000      5.3814739E-21
  0.8820000      5.5432612E-21
  0.8880000      5.7056524E-21
  0.8940000      5.8686166E-21
  0.9000000      6.0321181E-21
  0.9060000      6.1961111E-21
  0.9120000      6.3605443E-21
  0.9180000      6.5253609E-21
  0.9240000      6.6904965E-21
  0.9300000      6.8558991E-21
  0.9360000      7.0215218E-21
  0.9420000      7.1873376E-21
  0.9480000      7.3533456E-21
  0.9540000      7.5195629E-21
  0.9600000      7.6860338E-21
  0.9660000      7.8528181E-21
  0.9720000      8.0199902E-21
  0.9780000      8.1876292E-21
  0.9840000      8.3558142E-21
  0.9900000      8.5246197E-21
  0.9960000      8.6941133E-21
   1.002000      8.8643550E-21
   1.008000      9.0354021E-21
   1.014000      9.2073038E-21
   1.020000      9.3801118E-21
   1.026000      9.5538820E-21
   1.032000      9.7286602E-21
   1.038000      9.9045048E-21
   1.044000      1.0081455E-20
   1.050000      1.0259550E-20
   1.056000      1.0438808E-20
   1.062000      1.0619237E-20
   1.068000      1.0800811E-20
   1.074000      1.0983488E-20
   1.080000      1.1167212E-20
   1.086000      1.1351896E-20
   1.092000      1.1537457E-20
   1.098000      1.1723801E-20
   1.104000      1.1910843E-20
   1.110000      1.2098508E-20
   1.116000      1.2286736E-20
   1.122000      1.2475483E-20
   1.128000      1.2664722E-20
   1.134000      1.2854443E-20
   1.140000      1.3044651E-20
   1.146000      1.3235366E-20
   1.152000      1.3426618E-20
   1.158000      1.3618466E-20
   1.164000      1.3810974E-20
   1.170000      1.4004224E-20
   1.176000      1.4198311E-20
   1.182000      1.4393347E-20
   1.188000      1.4589445E-20
   1.194000      1.4786724E-20
   1.200000      1.4985306E-20
   1.206000      1.5185303E-20
   1.212000      1.5386821E-20
   1.218000      1.5589947E-20
   1.224000      1.5794763E-20
   1.230000      1.6001324E-20
   1.236000      1.6209678E-20
   1.242000      1.6419853E-20
   1.248000      1.6631870E-20
   1.254000      1.6845746E-20
   1.260000      1.7061500E-20
   1.266000      1.7279162E-20
   1.272000      1.7498773E-20
   1.278000      1.7720388E-20
   1.284000      1.7944073E-20
   1.290000      1.8169898E-20
   1.296000      1.8397943E-20
   1.302000      1.8628275E-20
   1.308000      1.8860956E-20
   1.314000      1.9096032E-20
   1.320000      1.9333539E-20
   1.326000      1.9573494E-20
   1.332000      1.9815918E-20
   1.338000      2.0060826E-20
   1.344000      2.0308252E-20
   1.350000      2.0558240E-20
   1.356000      2.0810854E-20
   1.362000      2.1066198E-20
   1.368000      2.1324387E-20
   1.374000      2.1585567E-20
   1.380000      2.1849895E-20
   1.386000      2.2117515E-20
   1.392000      2.2388579E-20
   1.398000      2.2663206E-20
   1.404000      2.2941499E-20
   1.410000      2.3223542E-20
   1.416000      2.3509383E-20
   1.422000      2.3799072E-20
   1.428000      2.4092640E-20
   1.434000      2.4390110E-20
   1.440000      2.4691503E-20
   1.446000      2.4996833E-20
   1.452000      2.5306140E-20
   1.458000      2.5619461E-20
   1.464000      2.5936836E-20
   1.470000      2.6258353E-20
   1.476000      2.6584092E-20
   1.482000      2.6914157E-20
   1.488000      2.7248674E-20
   1.494000      2.7587759E-20
   1.500000      2.7931550E-20
   1.506000      2.8280148E-20
   1.512000      2.8633668E-20
   1.518000      2.8992186E-20
   1.524000      2.9355780E-20
   1.530000      2.9724509E-20
   1.536000      3.0098414E-20
   1.542000      3.0477525E-20
   1.548000      3.0861853E-20
   1.554000      3.1251410E-20
   1.560000      3.1646179E-20
   1.566000      3.2046169E-20
   1.572000      3.2451371E-20
   1.578000      3.2861798E-20
   1.584000      3.3277483E-20
   1.590000      3.3698456E-20
   1.596000      3.4124780E-20
   1.602000      3.4556536E-20
   1.608000      3.4993801E-20
   1.614000      3.5436673E-20
   1.620000      3.5885250E-20
   1.626000      3.6339615E-20
   1.632000      3.6799873E-20
   1.638000      3.7266141E-20
   1.644000      3.7738516E-20
   1.650000      3.8217143E-20
   1.656000      3.8702152E-20
   1.662000      3.9193688E-20
   1.668000      3.9691877E-20
   1.674000      4.0196852E-20
   1.680000      4.0708721E-20
   1.686000      4.1227567E-20
   1.692000      4.1753444E-20
   1.698000      4.2286342E-20
   1.704000      4.2826239E-20
   1.710000      4.3373057E-20
   1.716000      4.3926683E-20
   1.722000      4.4486940E-20
   1.728000      4.5053662E-20
   1.734000      4.5626672E-20
   1.740000      4.6205776E-20
   1.746000      4.6790803E-20
   1.752000      4.7381603E-20
   1.758000      4.7978072E-20
   1.764000      4.8580094E-20
   1.770000      4.9187591E-20
   1.776000      4.9800499E-20
   1.782000      5.0418733E-20
   1.788000      5.1042227E-20
   1.794000      5.1670910E-20
   1.800000      5.2304698E-20
   1.806000      5.2943495E-20
   1.812000      5.3587206E-20
   1.818000      5.4235687E-20
   1.824000      5.4888830E-20
   1.830000      5.5546477E-20
   1.836000      5.6208480E-20
   1.842000      5.6874709E-20
   1.848000      5.7544971E-20
   1.854000      5.8219143E-20
   1.860000      5.8897063E-20
   1.866000      5.9578575E-20
   1.872000      6.0263500E-20
   1.878000      6.0951715E-20
   1.884000      6.1643044E-20
   1.890000      6.2337352E-20
   1.896000      6.3034497E-20
   1.902000      6.3734318E-20
   1.908000      6.4436704E-20
   1.914000      6.5141481E-20
   1.920000      6.5848488E-20
   1.926000      6.6557543E-20
   1.932000      6.7268408E-20
   1.938000      6.7980869E-20
   1.944000      6.8694629E-20
   1.950000      6.9409417E-20
   1.956000      7.0124928E-20
   1.962000      7.0840814E-20
   1.968000      7.1556797E-20
   1.974000      7.2272560E-20
   1.980000      7.2987819E-20
   1.986000      7.3702316E-20
   1.992000      7.4415811E-20
   1.998000      7.5128110E-20
   2.004000      7.5839001E-20
   2.010000      7.6548289E-20
   2.016000      7.7255774E-20
   2.022000      7.7961236E-20
   2.028000      7.8664469E-20
   2.034000      7.9365175E-20
   2.040000      8.0063089E-20
   2.046000      8.0757908E-20
   2.052000      8.1449321E-20
   2.058000      8.2136941E-20
   2.064000      8.2820438E-20
   2.070000      8.3499404E-20
   2.076000      8.4173466E-20
   2.082000      8.4842216E-20
   2.088000      8.5505292E-20
   2.094000      8.6162331E-20
   2.100000      8.6812999E-20
   2.106000      8.7456973E-20
   2.112000      8.8093953E-20
   2.118000      8.8723651E-20
   2.124000      8.9345794E-20
   2.130000      8.9960086E-20
   2.136000      9.0566306E-20
   2.142000      9.1164125E-20
   2.148000      9.1753316E-20
   2.154000      9.2333590E-20
   2.160000      9.2904648E-20
   2.166000      9.3466168E-20
   2.172000      9.4017814E-20
   2.178000      9.4559249E-20
   2.184000      9.5090118E-20
   2.190000      9.5610033E-20
   2.196000      9.6118684E-20
   2.202000      9.6615749E-20
   2.208000      9.7100936E-20
   2.214000      9.7573960E-20
   2.220000      9.8034577E-20
   2.226000      9.8482547E-20
   2.232000      9.8917663E-20
   2.238000      9.9339732E-20
   2.244000      9.9748521E-20
   2.250000      1.0014384E-19
   2.256000      1.0052542E-19
   2.262000      1.0089301E-19
   2.268000      1.0124631E-19
   2.274000      1.0158498E-19
   2.280000      1.0190867E-19
   2.286000      1.0221705E-19
   2.292000      1.0250975E-19
   2.298000      1.0278645E-19
   2.304000      1.0304688E-19
   2.310000      1.0329075E-19
   2.316000      1.0351782E-19
   2.322000      1.0372789E-19
   2.328000      1.0392077E-19
   2.334000      1.0409634E-19
   2.340000      1.0425448E-19
   2.346000      1.0439512E-19
   2.352000      1.0451819E-19
   2.358000      1.0462365E-19
   2.364000      1.0471144E-19
   2.370000      1.0478146E-19
   2.376000      1.0483368E-19
   2.382000      1.0486794E-19
   2.388000      1.0488421E-19
   2.394000      1.0488233E-19
   2.400000      1.0486229E-19
   2.406000      1.0482402E-19
   2.412000      1.0476755E-19
   2.418000      1.0469287E-19
   2.424000      1.0460001E-19
   2.430000      1.0448902E-19
   2.436000      1.0435990E-19
   2.442000      1.0421274E-19
   2.448000      1.0404759E-19
   2.454000      1.0386454E-19
   2.460000      1.0366371E-19
   2.466000      1.0344520E-19
   2.472000      1.0320913E-19
   2.478000      1.0295564E-19
   2.484000      1.0268487E-19
   2.490000      1.0239694E-19
   2.496000      1.0209203E-19
   2.502000      1.0177032E-19
   2.508000      1.0143204E-19
   2.514000      1.0107741E-19
   2.520000      1.0070674E-19
   2.526000      1.0032033E-19
   2.532000      9.9918481E-20
   2.538000      9.9501524E-20
   2.544000      9.9069774E-20
   2.550000      9.8623594E-20
   2.556000      9.8163300E-20
   2.562000      9.7689287E-20
   2.568000      9.7201968E-20
   2.574000      9.6701730E-20
   2.580000      9.6189040E-20
   2.586000      9.5664381E-20
   2.592000      9.5128194E-20
   2.598000      9.4580994E-20
   2.604000      9.4023223E-20
   2.610000      9.3455337E-20
   2.616000      9.2877791E-20
   2.622000      9.2291029E-20
   2.628000      9.1695511E-20
   2.634000      9.1091675E-20
   2.640000      9.0479962E-20
   2.646000      8.9860869E-20
   2.652000      8.9234836E-20
   2.658000      8.8602385E-20
   2.664000      8.7964034E-20
   2.670000      8.7320313E-20
   2.676000      8.6671784E-20
   2.682000      8.6019042E-20
   2.688000      8.5362661E-20
   2.694000      8.4703262E-20
   2.700000      8.4041460E-20
   2.706000      8.3377861E-20
   2.712000      8.2713105E-20
   2.718000      8.2047786E-20
   2.724000      8.1382514E-20
   2.730000      8.0717887E-20
   2.736000      8.0054488E-20
   2.742000      7.9392918E-20
   2.748000      7.8733784E-20
   2.754000      7.8077675E-20
   2.760000      7.7425249E-20
   2.766000      7.6777218E-20
   2.772000      7.6134221E-20
   2.778000      7.5497033E-20
   2.784000      7.4866314E-20
   2.790000      7.4242769E-20
   2.796000      7.3627043E-20
   2.802000      7.3019776E-20
   2.808000      7.2421588E-20
   2.814000      7.1833049E-20
   2.820000      7.1254805E-20
   2.826000      7.0687469E-20
   2.832000      7.0131681E-20
   2.838000      6.9588088E-20
   2.844000      6.9057309E-20
   2.850000      6.8540018E-20
   2.856000      6.8036833E-20
   2.862000      6.7548402E-20
   2.868000      6.7075423E-20
   2.874000      6.6618587E-20
   2.880000      6.6178604E-20
   2.886000      6.5756219E-20
   2.892000      6.5352122E-20
   2.898000      6.4966998E-20
   2.904000      6.4601423E-20
   2.910000      6.4256017E-20
   2.916000      6.3931277E-20
   2.922000      6.3627721E-20
   2.928000      6.3345873E-20
   2.934000      6.3086215E-20
   2.940000      6.2849241E-20
   2.946000      6.2635408E-20
   2.952000      6.2445170E-20
   2.958000      6.2278958E-20
   2.964000      6.2137161E-20
   2.970000      6.2020193E-20
   2.976000      6.1928434E-20
   2.982000      6.1862266E-20
   2.988000      6.1822064E-20
   2.994000      6.1808202E-20
   3.000000      6.1821069E-20
   3.006000      6.1860999E-20
   3.012000      6.1928324E-20
   3.018000      6.2023334E-20
   3.024000      6.2146319E-20
   3.030000      6.2297486E-20
   3.036000      6.2477036E-20
   3.042000      6.2685149E-20
   3.048000      6.2921936E-20
   3.054000      6.3187532E-20
   3.060000      6.3481989E-20
   3.066000      6.3805378E-20
   3.072000      6.4157731E-20
   3.078000      6.4539061E-20
   3.084000      6.4949375E-20
   3.090000      6.5388686E-20
   3.096000      6.5856954E-20
   3.102000      6.6354141E-20
   3.108000      6.6880202E-20
   3.114000      6.7435059E-20
   3.120000      6.8018616E-20
   3.126000      6.8630762E-20
   3.132000      6.9271342E-20
   3.138000      6.9940253E-20
   3.144000      7.0637302E-20
   3.150000      7.1362325E-20
   3.156000      7.2115118E-20
   3.162000      7.2895427E-20
   3.168000      7.3702995E-20
   3.174000      7.4537484E-20
   3.180000      7.5398573E-20
   3.186000      7.6285821E-20
   3.192000      7.7198802E-20
   3.198000      7.8137038E-20
   3.204000      7.9099999E-20
   3.210000      8.0087162E-20
   3.216000      8.1097905E-20
   3.222000      8.2131655E-20
   3.228000      8.3187751E-20
   3.234000      8.4265561E-20
   3.240000      8.5364374E-20
   3.246000      8.6483478E-20
   3.252000      8.7622157E-20
   3.258000      8.8779654E-20
   3.264000      8.9955155E-20
   3.270000      9.1147891E-20
   3.276000      9.2357035E-20
   3.282000      9.3581754E-20
   3.288000      9.4821174E-20
   3.294000      9.6074482E-20
   3.300000      9.7340857E-20
   3.306000      9.8619426E-20
   3.312000      9.9909362E-20
   3.318000      1.0120986E-19
   3.324000      1.0252003E-19
   3.330000      1.0383901E-19
   3.336000      1.0516585E-19
   3.342000      1.0649959E-19
   3.348000      1.0783927E-19
   3.354000      1.0918385E-19
   3.360000      1.1053227E-19
   3.366000      1.1188352E-19
   3.372000      1.1323650E-19
   3.378000      1.1459021E-19
   3.384000      1.1594355E-19
   3.390000      1.1729552E-19
   3.396000      1.1864500E-19
   3.402000      1.1999096E-19
   3.408000      1.2133236E-19
   3.414000      1.2266818E-19
   3.420000      1.2399735E-19
   3.426000      1.2531886E-19
   3.432000      1.2663165E-19
   3.438000      1.2793465E-19
   3.444000      1.2922678E-19
   3.450000      1.3050690E-19
   3.456000      1.3177389E-19
   3.462000      1.3302657E-19
   3.468000      1.3426376E-19
   3.474000      1.3548434E-19
   3.480000      1.3668712E-19
   3.486000      1.3787095E-19
   3.492000      1.3903473E-19
   3.498000      1.4017726E-19
   3.504000      1.4129743E-19
   3.510000      1.4239410E-19
   3.516000      1.4346614E-19
   3.522000      1.4451246E-19
   3.528000      1.4553191E-19
   3.534000      1.4652344E-19
   3.540000      1.4748594E-19
   3.546000      1.4841834E-19
   3.552000      1.4931961E-19
   3.558000      1.5018874E-19
   3.564000      1.5102479E-19
   3.570000      1.5182684E-19
   3.576000      1.5259399E-19
   3.582000      1.5332535E-19
   3.588000      1.5402005E-19
   3.594000      1.5467715E-19
   3.600000      1.5529577E-19
   3.606000      1.5587499E-19
   3.612000      1.5641390E-19
   3.618000      1.5691166E-19
   3.624000      1.5736744E-19
   3.630000      1.5778045E-19
   3.636000      1.5814988E-19
   3.642000      1.5847496E-19
   3.648000      1.5875486E-19
   3.654000      1.5898877E-19
   3.660000      1.5917598E-19
   3.666000      1.5931577E-19
   3.672000      1.5940755E-19
   3.678000      1.5945064E-19
   3.684000      1.5944458E-19
   3.690000      1.5938873E-19
   3.696000      1.5928260E-19
   3.702000      1.5912569E-19
   3.708000      1.5891751E-19
   3.714000      1.5865761E-19
   3.720000      1.5834558E-19
   3.726000      1.5798109E-19
   3.732000      1.5756386E-19
   3.738000      1.5709361E-19
   3.744000      1.5657006E-19
   3.750000      1.5599294E-19
   3.756000      1.5536207E-19
   3.762000      1.5467728E-19
   3.768000      1.5393845E-19
   3.774000      1.5314558E-19
   3.780000      1.5229857E-19
   3.786000      1.5139751E-19
   3.792000      1.5044240E-19
   3.798000      1.4943341E-19
   3.804000      1.4837064E-19
   3.810000      1.4725423E-19
   3.816000      1.4608440E-19
   3.822000      1.4486144E-19
   3.828000      1.4358559E-19
   3.834000      1.4225724E-19
   3.840000      1.4087663E-19
   3.846000      1.3944418E-19
   3.852000      1.3796026E-19
   3.858000      1.3642527E-19
   3.864000      1.3483962E-19
   3.870000      1.3320385E-19
   3.876000      1.3151850E-19
   3.882000      1.2978404E-19
   3.888000      1.2800111E-19
   3.894000      1.2617029E-19
   3.900000      1.2429224E-19
   3.906000      1.2236766E-19
   3.912000      1.2039724E-19
   3.918000      1.1838175E-19
   3.924000      1.1632196E-19
   3.930000      1.1421877E-19
   3.936000      1.1207303E-19
   3.942000      1.0988568E-19
   3.948000      1.0765776E-19
   3.954000      1.0539030E-19
   3.960000      1.0308441E-19
   3.966000      1.0074127E-19
   3.972000      9.8362011E-20
   3.978000      9.5947839E-20
   3.984000      9.3499979E-20
   3.990000      9.1019678E-20
   3.996000      8.8508158E-20
   4.002000      8.5966748E-20
   4.008000      8.3396744E-20
   4.014000      8.0799493E-20
   4.020000      7.8176349E-20
   4.026000      7.5528686E-20
   4.032000      7.2857933E-20
   4.038000      7.0165499E-20
   4.044000      6.7452824E-20
   4.050000      6.4721390E-20
   4.056000      6.1972675E-20
   4.062000      5.9208205E-20
   4.068000      5.6429518E-20
   4.074000      5.3638139E-20
   4.080000      5.0835612E-20
   4.086000      4.8023496E-20
   4.092000      4.5203349E-20
   4.098000      4.2376773E-20
   4.104000      3.9545376E-20
   4.110000      3.6710835E-20
   4.116000      3.3874794E-20
   4.122000      3.1038925E-20
   4.128000      2.8204888E-20
   4.134000      2.5374344E-20
   4.140000      2.2548945E-20
   4.146000      1.9730363E-20
   4.152000      1.6920280E-20
   4.158000      1.4120382E-20
   4.164000      1.1332365E-20
   4.170000      8.5579218E-21
   4.176000      5.7987409E-21
   4.182000      3.0565253E-21
   4.188000      3.3297887E-22
   4.194000     -2.3701683E-21
   4.200000     -5.0511699E-21
   4.206000     -7.7082651E-21
   4.212000     -1.0339692E-20
   4.218000     -1.2943680E-20
   4.224000     -1.5518471E-20
   4.230000     -1.8062308E-20
   4.236000     -2.0573447E-20
   4.242000     -2.3050131E-20
   4.248000     -2.5490611E-20
   4.254000     -2.7893141E-20
   4.260000     -3.0255973E-20
   4.266000     -3.2577394E-20
   4.272000     -3.4855733E-20
   4.278000     -3.7089367E-20
   4.284000     -3.9276691E-20
   4.290000     -4.1416129E-20
   4.296000     -4.3506091E-20