  -1.500000      0.0000000E+00
  -1.494000      0.0000000E+00
  -1.488000      0.0000000E+00
  -1.482000      0.0000000E+00
  -1.476000     -8.8429110E-36
  -1.470000     -1.5419968E-34
  -1.464000     -1.1337231E-33
  -1.458000     -5.2179371E-33
  -1.452000     -1.7556815E-32
  -1.446000     -4.6827607E-32
  -1.440000     -1.0416165E-31
  -1.434000     -2.0112774E-31
  -1.428000     -3.5227457E-31
  -1.422000     -5.9478392E-31
  -1.416000     -1.0442168E-30
  -1.410000     -2.0057364E-30
  -1.404000     -4.1480156E-30
  -1.398000     -8.7170892E-30
  -1.392000     -1.7720098E-29
  -1.386000     -3.3953591E-29
  -1.380000     -6.0709416E-29
  -1.374000     -1.0099331E-28
  -1.368000     -1.5617019E-28
  -1.362000     -2.2412174E-28
  -1.356000     -2.9725595E-28
  -1.350000     -3.6098685E-28
  -1.344000     -3.9351000E-28
  -1.338000     -3.6771783E-28
  -1.332000     -2.5583507E-28
  -1.326000     -3.6777552E-29
  -1.320000      2.9457286E-28
  -1.314000      7.1785081E-28
  -1.308000      1.1797795E-27
  -1.302000      1.5913749E-27
  -1.296000      1.8319012E-27
  -1.290000      1.7606699E-27
  -1.284000      1.2362577E-27
  -1.278000      1.4112368E-28
  -1.272000     -1.5917845E-27
  -1.266000     -3.9545909E-27
  -1.260000     -6.8463790E-27
  -1.254000     -1.0064740E-26
  -1.248000     -1.3308957E-26
  -1.242000     -1.6195177E-26
  -1.236000     -1.8282503E-26
  -1.230000     -1.9107898E-26
  -1.224000     -1.8227716E-26
  -1.218000     -1.5263824E-26
  -1.212000     -9.9530164E-27
  -1.206000     -2.1987926E-27
  -1.200000      7.8758756E-27
  -1.194000      1.9878101E-26
  -1.188000      3.3103343E-26
  -1.182000      4.6513085E-26
  -1.176000      5.8745849E-26
  -1.170000      6.8177476E-26
  -1.164000      7.3043559E-26
  -1.158000      7.1629069E-26
  -1.152000      6.2517405E-26
  -1.146000      4.4873961E-26
  -1.140000      1.8722917E-26
  -1.134000     -1.4836243E-26
  -1.128000     -5.3529365E-26
  -1.122000     -9.3972766E-26
  -1.116000     -1.3192841E-25
  -1.110000     -1.6274235E-25
  -1.104000     -1.8192324E-25
  -1.098000     -1.8578349E-25
  -1.092000     -1.7204470E-25
  -1.086000     -1.4030295E-25
  -1.080000     -9.2265165E-26
  -1.074000     -3.1700822E-26
  -1.068000      3.5901063E-26
  -1.062000      1.0393173E-25
  -1.056000      1.6543753E-25
  -1.050000      2.1396018E-25
  -1.044000      2.4432388E-25
  -1.038000      2.5325982E-25
  -1.032000      2.3978840E-25
  -1.026000      2.0531397E-25
  -1.020000      1.5343105E-25
  -1.014000      8.9475673E-26
  -1.008000      1.9886225E-26
  -1.002000     -4.8543326E-26
 -0.9960000     -1.0942841E-25
 -0.9900000     -1.5748823E-25
 -0.9840000     -1.8909122E-25
 -0.9780000     -2.0259033E-25
 -0.9720000     -1.9841035E-25
 -0.9660000     -1.7887589E-25
 -0.9600000     -1.4780294E-25
 -0.9540000     -1.0990679E-25
 -0.9480000     -7.0108743E-26
 -0.9420000     -3.2841725E-26
 -0.9360000     -1.4598441E-27
 -0.9300000      2.2156262E-26
 -0.9240000      3.7736813E-26
 -0.9180000      4.6483829E-26
 -0.9120000      5.0685983E-26
 -0.9060000      5.3162433E-26
 -0.9000000      5.6643381E-26
 -0.8940000      6.3208614E-26
 -0.8880000      7.3894314E-26
 -0.8820000      8.8548065E-26
 -0.8760000      1.0596284E-25
 -0.8700000      1.2426481E-25
 -0.8640000      1.4147590E-25
 -0.8580000      1.5612935E-25
 -0.8520000      1.6779539E-25
 -0.8460000      1.7737842E-25
 -0.8400000      1.8707937E-25
 -0.8340000      1.9997385E-25
 -0.8280000      2.1923283E-25
 -0.8220000      2.4709184E-25
 -0.8160000      2.8374972E-25
 -0.8100000      3.2642512E-25
 -0.8040000      3.6881064E-25
 -0.7980000      4.0112993E-25
 -0.7920000      4.1091942E-25
 -0.7860000      3.8453735E-25
 -0.7800000      3.0925837E-25
 -0.7740000      1.7567955E-25
 -0.7680000     -1.9941214E-26
 -0.7620000     -2.7383706E-25
 -0.7560000     -5.7376324E-25
 -0.7500000     -8.9919385E-25
 -0.7440000     -1.2227936E-24
 -0.7380000     -1.5130758E-24
 -0.7320000     -1.7379464E-24
 -0.7260000     -1.8686744E-24
 -0.7200000     -1.8837371E-24
 -0.7140000     -1.7719822E-24
 -0.7080000     -1.5346419E-24
 -0.7020000     -1.1858928E-24
 -0.6960000     -7.5186678E-25
 -0.6900000     -2.6822873E-25
 -0.6840000      2.2336848E-25
 -0.6780000      6.7951527E-25
 -0.6720000      1.0594541E-24
 -0.6660000      1.3291676E-24
 -0.6600000      1.4647184E-24
 -0.6540000      1.4545228E-24
 -0.6480000      1.3003742E-24
 -0.6420000      1.0171757E-24
 -0.6360000      6.3145781E-25
 -0.6300000      1.7886445E-25
 -0.6240000     -2.9914468E-25
 -0.6180000     -7.5907840E-25
 -0.6120000     -1.1593738E-24
 -0.6060000     -1.4642153E-24
 -0.6000000     -1.6469168E-24
 -0.5940000     -1.6925821E-24
 -0.5880000     -1.5998041E-24
 -0.5820000     -1.3811931E-24
 -0.5760000     -1.0626005E-24
 -0.5700000     -6.8097008E-25
 -0.5640000     -2.8087940E-25
 -0.5580000      9.0045132E-26
 -0.5520000      3.8649648E-25
 -0.5460000      5.7115092E-25
 -0.5400000      6.2001736E-25
 -0.5340000      5.2679584E-25
 -0.5280000      3.0557955E-25
 -0.5220000     -8.6503467E-27
 -0.5160000     -3.6208181E-25
 -0.5100000     -6.8674202E-25
 -0.5040000     -9.0750460E-25
 -0.4980000     -9.5079048E-25
 -0.4920000     -7.5406504E-25
 -0.4860000     -2.7499780E-25
 -0.4800000      5.0087234E-25
 -0.4740000      1.5550361E-24
 -0.4680000      2.8342786E-24
 -0.4620000      4.2526990E-24
 -0.4560000      5.6974327E-24
 -0.4500000      7.0375212E-24
 -0.4440000      8.1349727E-24
 -0.4380000      8.8567339E-24
 -0.4320000      9.0862482E-24
 -0.4260000      8.7332243E-24
 -0.4200000      7.7405462E-24
 -0.4140000      6.0876152E-24
 -0.4080000      3.7898010E-24
 -0.4020000      8.9418744E-25
 -0.3960000     -2.5278783E-24
 -0.3900000     -6.3905606E-24
 -0.3840000     -1.0604580E-23
 -0.3780000     -1.5088479E-23
 -0.3720000     -1.9778996E-23
 -0.3660000     -2.4639660E-23
 -0.3600000     -2.9666938E-23
 -0.3540000     -3.4893303E-23
 -0.3480000     -4.0387160E-23
 -0.3420000     -4.6249561E-23
 -0.3360000     -5.2607827E-23
 -0.3300000     -5.9606847E-23
 -0.3240000     -6.7398427E-23
 -0.3180000     -7.6129754E-23
 -0.3120000     -8.5931780E-23
 -0.3060000     -9.6908716E-23
 -0.3000000     -1.0912962E-22
 -0.2940000     -1.2262284E-22
 -0.2880000     -1.3737417E-22
 -0.2820000     -1.5332870E-22
 -0.2760000     -1.7039667E-22
 -0.2700000     -1.8846247E-22
 -0.2640000     -2.0739587E-22
 -0.2580000     -2.2706486E-22
 -0.2520000     -2.4734796E-22
 -0.2460000     -2.6814581E-22
 -0.2400000     -2.8938970E-22
 -0.2340000     -3.1104785E-22
 -0.2280000     -3.3312766E-22
 -0.2220000     -3.5567449E-22
 -0.2160000     -3.7876739E-22
 -0.2100000     -4.0251258E-22
 -0.2040000     -4.2703366E-22
 -0.1980000     -4.5246184E-22
 -0.1920000     -4.7892515E-22
 -0.1860000     -5.0653806E-22
 -0.1800000     -5.3539159E-22
 -0.1740000     -5.6554557E-22
 -0.1680000     -5.9702286E-22
 -0.1620000     -6.2980605E-22
 -0.1560000     -6.6383708E-22
 -0.1500000     -6.9901977E-22
 -0.1440000     -7.3522619E-22
 -0.1380000     -7.7230396E-22
 -0.1320000     -8.1008730E-22
 -0.1260000     -8.4840832E-22
 -0.1200000     -8.8710799E-22
 -0.1140000     -9.2604748E-22
 -0.1080000     -9.6511520E-22
 -0.1020000     -1.0042319E-21
 -9.6000001E-02 -1.0433528E-21
 -9.0000004E-02 -1.0824650E-21
 -8.3999999E-02 -1.1215819E-21
 -7.8000002E-02 -1.1607343E-21
 -7.1999997E-02 -1.1999630E-21
 -6.6000000E-02 -1.2393068E-21
 -5.9999999E-02 -1.2787963E-21
 -5.4000001E-02 -1.3184454E-21
 -4.8000000E-02 -1.3582507E-21
 -4.1999999E-02 -1.3981879E-21
 -3.5999998E-02 -1.4382162E-21
 -2.9999999E-02 -1.4782817E-21
 -2.4000000E-02 -1.5183237E-21
 -1.7999999E-02 -1.5582799E-21
 -1.2000000E-02 -1.5980922E-21
 -6.0000001E-03 -1.6377115E-21
  0.0000000E+00 -1.6770999E-21
  6.0000001E-03 -1.7162330E-21
  1.2000000E-02 -1.7550993E-21
  1.7999999E-02 -1.7937026E-21
  2.4000000E-02 -1.8320574E-21
  2.9999999E-02 -1.8701928E-21
  3.5999998E-02 -1.9081477E-21
  4.1999999E-02 -1.9459751E-21
  4.8000000E-02 -1.9837362E-21
  5.4000001E-02 -2.0215026E-21
  5.9999999E-02 -2.0593518E-21
  6.6000000E-02 -2.0973635E-21
  7.1999997E-02 -2.1356156E-21
  7.8000002E-02 -2.1741784E-21
  8.3999999E-02 -2.2131094E-21
  9.0000004E-02 -2.2524512E-21
  9.6000001E-02 -2.2922255E-21
  0.1020000     -2.3324373E-21
  0.1080000     -2.3730727E-21
  0.1140000     -2.4141072E-21
  0.1200000     -2.4555119E-21
  0.1260000     -2.4972591E-21
  0.1320000     -2.5393332E-21
  0.1380000     -2.5817359E-21
  0.1440000     -2.6244946E-21
  0.1500000     -2.6676617E-21
  0.1560000     -2.7113205E-21
  0.1620000     -2.7555787E-21
  0.1680000     -2.8005672E-21
  0.1740000     -2.8464301E-21
  0.1800000     -2.8933176E-21
  0.1860000     -2.9413751E-21
  0.1920000     -2.9907339E-21
  0.1980000     -3.0415007E-21
  0.2040000     -3.0937500E-21
  0.2100000     -3.1475169E-21
  0.2160000     -3.2027941E-21
  0.2220000     -3.2595290E-21
  0.2280000     -3.3176264E-21
  0.2340000     -3.3769513E-21
  0.2400000     -3.4373341E-21
  0.2460000     -3.4985826E-21
  0.2520000     -3.5604846E-21
  0.2580000     -3.6228265E-21
  0.2640000     -3.6853966E-21
  0.2700000     -3.7479961E-21
  0.2760000     -3.8104495E-21
  0.2820000     -3.8726023E-21
  0.2880000     -3.9343339E-21
  0.2940000     -3.9955445E-21
  0.3000000     -4.0561621E-21
  0.3060000     -4.1161291E-21
  0.3120000     -4.1753957E-21
  0.3180000     -4.2339139E-21
  0.3240000     -4.2916230E-21
  0.3300000     -4.3484501E-21
  0.3360000     -4.4042985E-21
  0.3420000     -4.4590500E-21
  0.3480000     -4.5125691E-21
  0.3540000     -4.5647069E-21
  0.3600000     -4.6153104E-21
  0.3660000     -4.6642364E-21
  0.3720000     -4.7113639E-21
  0.3780000     -4.7565983E-21
  0.3840000     -4.7998888E-21
  0.3900000     -4.8412252E-21
  0.3960000     -4.8806435E-21
  0.4020000     -4.9182208E-21
  0.4080000     -4.9540667E-21
  0.4140000     -4.9883196E-21
  0.4200000     -5.0211337E-21
  0.4260000     -5.0526744E-21
  0.4320000     -5.0831052E-21
  0.4380000     -5.1125897E-21
  0.4440000     -5.1412829E-21
  0.4500000     -5.1693348E-21
  0.4560000     -5.1968914E-21
  0.4620000     -5.2240919E-21
  0.4680000     -5.2510742E-21
  0.4740000     -5.2779749E-21
  0.4800000     -5.3049262E-21
  0.4860000     -5.3320547E-21
  0.4920000     -5.3594829E-21
  0.4980000     -5.3873199E-21
  0.5040000     -5.4156646E-21
  0.5100000     -5.4446050E-21
  0.5160000     -5.4742203E-21
  0.5220000     -5.5045877E-21
  0.5280000     -5.5357883E-21
  0.5340000     -5.5679110E-21
  0.5400000     -5.6010645E-21
  0.5460000     -5.6353792E-21
  0.5520000     -5.6710081E-21
  0.5580000     -5.7081262E-21
  0.5640000     -5.7469270E-21
  0.5700000     -5.7876115E-21
  0.5760000     -5.8303765E-21
  0.5820000     -5.8754082E-21
  0.5880000     -5.9228660E-21
  0.5940000     -5.9728810E-21
  0.6000000     -6.0255422E-21
  0.6060000     -6.0809056E-21
  0.6120000     -6.1389920E-21
  0.6180000     -6.1997958E-21
  0.6240000     -6.2632912E-21
  0.6300000     -6.3294459E-21
  0.6360000     -6.3982251E-21
  0.6420000     -6.4696062E-21
  0.6480000     -6.5435718E-21
  0.6540000     -6.6201244E-21
  0.6600000     -6.6992780E-21
  0.6660000     -6.7810506E-21
  0.6720000     -6.8654771E-21
  0.6780000     -6.9525839E-21
  0.6840000     -7.0423944E-21
  0.6900000     -7.1349207E-21
  0.6960000     -7.2301652E-21
  0.7020000     -7.3280997E-21
  0.7080000     -7.4286797E-21
  0.7140000     -7.5318317E-21
  0.7200000     -7.6374580E-21
  0.7260000     -7.7454309E-21
  0.7320000     -7.8556026E-21
  0.7380000     -7.9678084E-21
  0.7440000     -8.0818680E-21
  0.7500000     -8.1976006E-21
  0.7560000     -8.3148260E-21
  0.7620000     -8.4333842E-21
  0.7680000     -8.5531283E-21
  0.7740000     -8.6739427E-21
  0.7800000     -8.7957426E-21
  0.7860000     -8.9184772E-21
  0.7920000     -9.0421350E-21
  0.7980000     -9.1667412E-21
  0.8040000     -9.2923547E-21
  0.8100000     -9.4190685E-21
  0.8160000     -9.5470020E-21
  0.8220000     -9.6762918E-21
  0.8280000     -9.8070848E-21
  0.8340000     -9.9395291E-21
  0.8400000     -1.0073765E-20
  0.8460000     -1.0209916E-20
  0.8520000     -1.0348067E-20
  0.8580000     -1.0488285E-20
  0.8640000     -1.0630589E-20
  0.8700000     -1.0774965E-20
  0.8760000     -1.0921375E-20
  0.8820000     -1.1069755E-20
  0.8880000     -1.1220041E-20
  0.8940000     -1.1372177E-20
  0.9000000     -1.1526130E-20
  0.9060000     -1.1681907E-20
  0.9120000     -1.1839557E-20
  0.9180000     -1.1999179E-20
  0.9240000     -1.2160920E-20
  0.9300000     -1.2324961E-20
  0.9360000     -1.2491506E-20
  0.9420000     -1.2660770E-20
  0.9480000     -1.2832953E-20
  0.9540000     -1.3008234E-20
  0.9600000     -1.3186746E-20
  0.9660000     -1.3368574E-20
  0.9720000     -1.3553744E-20
  0.9780000     -1.3742237E-20
  0.9840000     -1.3933985E-20
  0.9900000     -1.4128875E-20
  0.9960000     -1.4326778E-20
   1.002000     -1.4527550E-20
   1.008000     -1.4731051E-20
   1.014000     -1.4937156E-20
   1.020000     -1.5145745E-20
   1.026000     -1.5356742E-20
   1.032000     -1.5570084E-20
   1.038000     -1.5785734E-20
   1.044000     -1.6003686E-20
   1.050000     -1.6223941E-20
   1.056000     -1.6446517E-20
   1.062000     -1.6671431E-20
   1.068000     -1.6898704E-20
   1.074000     -1.7128343E-20
   1.080000     -1.7360343E-20
   1.086000     -1.7594679E-20
   1.092000     -1.7831306E-20
   1.098000     -1.8070155E-20
   1.104000     -1.8311137E-20
   1.110000     -1.8554152E-20
   1.116000     -1.8799070E-20
   1.122000     -1.9045774E-20
   1.128000     -1.9294128E-20
   1.134000     -1.9543998E-20
   1.140000     -1.9795259E-20
   1.146000     -2.0047793E-20
   1.152000     -2.0301500E-20
   1.158000     -2.0556296E-20
   1.164000     -2.0812110E-20
   1.170000     -2.1068899E-20
   1.176000     -2.1326632E-20
   1.182000     -2.1585299E-20
   1.188000     -2.1844903E-20
   1.194000     -2.2105462E-20
   1.200000     -2.2367003E-20
   1.206000     -2.2629569E-20
   1.212000     -2.2893202E-20
   1.218000     -2.3157952E-20
   1.224000     -2.3423873E-20
   1.230000     -2.3691010E-20
   1.236000     -2.3959414E-20
   1.242000     -2.4229123E-20
   1.248000     -2.4500175E-20
   1.254000     -2.4772596E-20
   1.260000     -2.5046402E-20
   1.266000     -2.5321621E-20
   1.272000     -2.5598253E-20
   1.278000     -2.5876308E-20
   1.284000     -2.6155793E-20
   1.290000     -2.6436712E-20
   1.296000     -2.6719061E-20
   1.302000     -2.7002844E-20
   1.308000     -2.7288042E-20
   1.314000     -2.7574654E-20
   1.320000     -2.7862665E-20
   1.326000     -2.8152045E-20
   1.332000     -2.8442770E-20
   1.338000     -2.8734800E-20
   1.344000     -2.9028068E-20
   1.350000     -2.9322499E-20
   1.356000     -2.9618000E-20
   1.362000     -2.9914476E-20
   1.368000     -3.0211796E-20
   1.374000     -3.0509817E-20
   1.380000     -3.0808410E-20
   1.386000     -3.1107426E-20
   1.392000     -3.1406730E-20
   1.398000     -3.1706198E-20
   1.404000     -3.2005738E-20
   1.410000     -3.2305267E-20
   1.416000     -3.2604755E-20
   1.422000     -3.2904195E-20
   1.428000     -3.3203611E-20
   1.434000     -3.3503031E-20
   1.440000     -3.3802500E-20
   1.446000     -3.4102059E-20
   1.452000     -3.4401718E-20
   1.458000     -3.4701455E-20
   1.464000     -3.5001227E-20
   1.470000     -3.5300931E-20
   1.476000     -3.5600445E-20
   1.482000     -3.5899593E-20
   1.488000     -3.6198180E-20
   1.494000     -3.6496003E-20
   1.500000     -3.6792845E-20
   1.506000     -3.7088501E-20
   1.512000     -3.7382783E-20
   1.518000     -3.7675524E-20
   1.524000     -3.7966592E-20
   1.530000     -3.8255914E-20
   1.536000     -3.8543427E-20
   1.542000     -3.8829128E-20
   1.548000     -3.9113035E-20
   1.554000     -3.9395188E-20
   1.560000     -3.9675650E-20
   1.566000     -3.9954497E-20
   1.572000     -4.0231781E-20
   1.578000     -4.0507581E-20
   1.584000     -4.0781946E-20
   1.590000     -4.1054913E-20
   1.596000     -4.1326509E-20
   1.602000     -4.1596768E-20
   1.608000     -4.1865701E-20
   1.614000     -4.2133298E-20
   1.620000     -4.2399572E-20
   1.626000     -4.2664522E-20
   1.632000     -4.2928141E-20
   1.638000     -4.3190447E-20
   1.644000     -4.3451452E-20
   1.650000     -4.3711164E-20
   1.656000     -4.3969619E-20
   1.662000     -4.4226840E-20
   1.668000     -4.4482862E-20
   1.674000     -4.4737724E-20
   1.680000     -4.4991472E-20
   1.686000     -4.5244175E-20
   1.692000     -4.5495916E-20
   1.698000     -4.5746791E-20
   1.704000     -4.5996916E-20
   1.710000     -4.6246440E-20
   1.716000     -4.6495522E-20
   1.722000     -4.6744322E-20
   1.728000     -4.6993000E-20
   1.734000     -4.7241706E-20
   1.740000     -4.7490591E-20
   1.746000     -4.7739750E-20
   1.752000     -4.7989265E-20
   1.758000     -4.8239189E-20
   1.764000     -4.8489531E-20
   1.770000     -4.8740270E-20
   1.776000     -4.8991378E-20
   1.782000     -4.9242779E-20
   1.788000     -4.9494446E-20
   1.794000     -4.9746332E-20
   1.800000     -4.9998431E-20
   1.806000     -5.0250780E-20
   1.812000     -5.0503454E-20
   1.818000     -5.0756578E-20
   1.824000     -5.1010328E-20
   1.830000     -5.1264903E-20
   1.836000     -5.1520589E-20
   1.842000     -5.1777648E-20
   1.848000     -5.2036388E-20
   1.854000     -5.2297111E-20
   1.860000     -5.2560109E-20
   1.866000     -5.2825654E-20
   1.872000     -5.3093967E-20
   1.878000     -5.3365253E-20
   1.884000     -5.3639645E-20
   1.890000     -5.3917261E-20
   1.896000     -5.4198163E-20
   1.902000     -5.4482419E-20
   1.908000     -5.4770058E-20
   1.914000     -5.5061155E-20
   1.920000     -5.5355799E-20
   1.926000     -5.5654095E-20
   1.932000     -5.5956222E-20
   1.938000     -5.6262415E-20
   1.944000     -5.6572937E-20
   1.950000     -5.6888125E-20
   1.956000     -5.7208328E-20
   1.962000     -5.7533953E-20
   1.968000     -5.7865362E-20
   1.974000     -5.8202948E-20
   1.980000     -5.8547062E-20
   1.986000     -5.8898019E-20
   1.992000     -5.9256091E-20
   1.998000     -5.9621537E-20
   2.004000     -5.9994563E-20
   2.010000     -6.0375318E-20
   2.016000     -6.0763951E-20
   2.022000     -6.1160591E-20
   2.028000     -6.1565347E-20
   2.034000     -6.1978349E-20
   2.040000     -6.2399746E-20
   2.046000     -6.2829699E-20
   2.052000     -6.3268395E-20
   2.058000     -6.3716088E-20
   2.064000     -6.4173008E-20
   2.070000     -6.4639402E-20
   2.076000     -6.5115567E-20
   2.082000     -6.5601756E-20
   2.088000     -6.6098258E-20
   2.094000     -6.6605320E-20
   2.100000     -6.7123206E-20
   2.106000     -6.7652117E-20
   2.112000     -6.8192246E-20
   2.118000     -6.8743711E-20
   2.124000     -6.9306620E-20
   2.130000     -6.9881032E-20
   2.136000     -7.0466954E-20
   2.142000     -7.1064372E-20
   2.148000     -7.1673242E-20
   2.154000     -7.2293505E-20
   2.160000     -7.2925096E-20
   2.166000     -7.3567957E-20
   2.172000     -7.4222037E-20
   2.178000     -7.4887317E-20
   2.184000     -7.5563802E-20
   2.190000     -7.6251499E-20
   2.196000     -7.6950499E-20
   2.202000     -7.7660866E-20
   2.208000     -7.8382691E-20
   2.214000     -7.9116123E-20
   2.220000     -7.9861212E-20
   2.226000     -8.0618082E-20
   2.232000     -8.1386811E-20
   2.238000     -8.2167430E-20
   2.244000     -8.2960012E-20
   2.250000     -8.3764555E-20
   2.256000     -8.4581053E-20
   2.262000     -8.5409500E-20
   2.268000     -8.6249877E-20
   2.274000     -8.7102112E-20
   2.280000     -8.7966180E-20
   2.286000     -8.8842015E-20
   2.292000     -8.9729561E-20
   2.298000     -9.0628790E-20
   2.304000     -9.1539619E-20
   2.310000     -9.2461971E-20
   2.316000     -9.3395767E-20
   2.322000     -9.4340854E-20
   2.328000     -9.5297087E-20
   2.334000     -9.6264281E-20
   2.340000     -9.7242209E-20
   2.346000     -9.8230683E-20
   2.352000     -9.9229452E-20
   2.358000     -1.0023827E-19
   2.364000     -1.0125690E-19
   2.370000     -1.0228508E-19
   2.376000     -1.0332256E-19
   2.382000     -1.0436907E-19
   2.388000     -1.0542433E-19
   2.394000     -1.0648808E-19
   2.400000     -1.0755998E-19
   2.406000     -1.0863974E-19
   2.412000     -1.0972702E-19
   2.418000     -1.1082139E-19
   2.424000     -1.1192249E-19
   2.430000     -1.1302977E-19
   2.436000     -1.1414276E-19
   2.442000     -1.1526083E-19
   2.448000     -1.1638345E-19
   2.454000     -1.1750992E-19
   2.460000     -1.1863967E-19
   2.466000     -1.1977202E-19
   2.472000     -1.2090637E-19
   2.478000     -1.2204205E-19
   2.484000     -1.2317848E-19
   2.490000     -1.2431511E-19
   2.496000     -1.2545136E-19
   2.502000     -1.2658674E-19
   2.508000     -1.2772077E-19
   2.514000     -1.2885303E-19
   2.520000     -1.2998312E-19
   2.526000     -1.3111065E-19
   2.532000     -1.3223526E-19
   2.538000     -1.3335658E-19
   2.544000     -1.3447421E-19
   2.550000     -1.3558770E-19
   2.556000     -1.3669659E-19
   2.562000     -1.3780037E-19
   2.568000     -1.3889846E-19
   2.574000     -1.3999024E-19
   2.580000     -1.4107503E-19
   2.586000     -1.4215216E-19
   2.592000     -1.4322091E-19
   2.598000     -1.4428051E-19
   2.604000     -1.4533030E-19
   2.610000     -1.4636958E-19
   2.616000     -1.4739774E-19
   2.622000     -1.4841418E-19
   2.628000     -1.4941839E-19
   2.634000     -1.5040993E-19
   2.640000     -1.5138845E-19
   2.646000     -1.5235361E-19
   2.652000     -1.5330504E-19
   2.658000     -1.5424247E-19
   2.664000     -1.5516555E-19
   2.670000     -1.5607394E-19
   2.676000     -1.5696723E-19
   2.682000     -1.5784494E-19
   2.688000     -1.5870652E-19
   2.694000     -1.5955143E-19
   2.700000     -1.6037909E-19
   2.706000     -1.6118882E-19
   2.712000     -1.6198001E-19
   2.718000     -1.6275204E-19
   2.724000     -1.6350431E-19
   2.730000     -1.6423635E-19
   2.736000     -1.6494763E-19
   2.742000     -1.6563771E-19
   2.748000     -1.6630625E-19
   2.754000     -1.6695296E-19
   2.760000     -1.6757758E-19
   2.766000     -1.6817985E-19
   2.772000     -1.6875964E-19
   2.778000     -1.6931681E-19
   2.784000     -1.6985113E-19
   2.790000     -1.7036250E-19
   2.796000     -1.7085072E-19
   2.802000     -1.7131564E-19
   2.808000     -1.7175702E-19
   2.814000     -1.7217474E-19
   2.820000     -1.7256854E-19
   2.826000     -1.7293828E-19
   2.832000     -1.7328378E-19
   2.838000     -1.7360485E-19
   2.844000     -1.7390131E-19
   2.850000     -1.7417308E-19
   2.856000     -1.7441987E-19
   2.862000     -1.7464169E-19
   2.868000     -1.7483839E-19
   2.874000     -1.7500998E-19
   2.880000     -1.7515650E-19
   2.886000     -1.7527810E-19
   2.892000     -1.7537485E-19
   2.898000     -1.7544708E-19
   2.904000     -1.7549499E-19
   2.910000     -1.7551895E-19
   2.916000     -1.7551939E-19
   2.922000     -1.7549669E-19
   2.928000     -1.7545137E-19
   2.934000     -1.7538386E-19
   2.940000     -1.7529468E-19
   2.946000     -1.7518438E-19
   2.952000     -1.7505339E-19
   2.958000     -1.7490218E-19
   2.964000     -1.7473123E-19
   2.970000     -1.7454096E-19
   2.976000     -1.7433182E-19
   2.982000     -1.7410421E-19
   2.988000     -1.7385872E-19
   2.994000     -1.7359581E-19
   3.000000     -1.7331616E-19
   3.006000     -1.7302021E-19
   3.012000     -1.7270880E-19
   3.018000     -1.7238255E-19
   3.024000     -1.7204223E-19
   3.030000     -1.7168863E-19
   3.036000     -1.7132255E-19
   3.042000     -1.7094482E-19
   3.048000     -1.7055628E-19
   3.054000     -1.7015779E-19
   3.060000     -1.6975018E-19
   3.066000     -1.6933435E-19
   3.072000     -1.6891119E-19
   3.078000     -1.6848156E-19
   3.084000     -1.6804643E-19
   3.090000     -1.6760663E-19
   3.096000     -1.6716315E-19
   3.102000     -1.6671691E-19
   3.108000     -1.6626885E-19
   3.114000     -1.6581996E-19
   3.120000     -1.6537120E-19
   3.126000     -1.6492346E-19
   3.132000     -1.6447789E-19
   3.138000     -1.6403532E-19
   3.144000     -1.6359690E-19
   3.150000     -1.6316362E-19
   3.156000     -1.6273659E-19
   3.162000     -1.6231698E-19
   3.168000     -1.6190584E-19
   3.174000     -1.6150448E-19
   3.180000     -1.6111401E-19
   3.186000     -1.6073575E-19
   3.192000     -1.6037096E-19
   3.198000     -1.6002095E-19
   3.204000     -1.5968697E-19
   3.210000     -1.5937036E-19
   3.216000     -1.5907239E-19
   3.222000     -1.5879442E-19
   3.228000     -1.5853766E-19
   3.234000     -1.5830336E-19
   3.240000     -1.5809272E-19
   3.246000     -1.5790693E-19
   3.252000     -1.5774710E-19
   3.258000     -1.5761437E-19
   3.264000     -1.5750975E-19
   3.270000     -1.5743430E-19
   3.276000     -1.5738900E-19
   3.282000     -1.5737490E-19
   3.288000     -1.5739292E-19
   3.294000     -1.5744411E-19
   3.300000     -1.5752943E-19
   3.306000     -1.5764990E-19
   3.312000     -1.5780652E-19
   3.318000     -1.5800036E-19
   3.324000     -1.5823243E-19
   3.330000     -1.5850372E-19
   3.336000     -1.5881524E-19
   3.342000     -1.5916794E-19
   3.348000     -1.5956278E-19
   3.354000     -1.6000068E-19
   3.360000     -1.6048245E-19
   3.366000     -1.6100892E-19
   3.372000     -1.6158088E-19
   3.378000     -1.6219900E-19
   3.384000     -1.6286394E-19
   3.390000     -1.6357634E-19
   3.396000     -1.6433671E-19
   3.402000     -1.6514556E-19
   3.408000     -1.6600345E-19
   3.414000     -1.6691078E-19
   3.420000     -1.6786806E-19
   3.426000     -1.6887575E-19
   3.432000     -1.6993429E-19
   3.438000     -1.7104425E-19
   3.444000     -1.7220608E-19
   3.450000     -1.7342032E-19
   3.456000     -1.7468736E-19
   3.462000     -1.7600771E-19
   3.468000     -1.7738177E-19
   3.474000     -1.7880985E-19
   3.480000     -1.8029221E-19
   3.486000     -1.8182908E-19
   3.492000     -1.8342046E-19
   3.498000     -1.8506637E-19
   3.504000     -1.8676672E-19
   3.510000     -1.8852129E-19
   3.516000     -1.9032986E-19
   3.522000     -1.9219215E-19
   3.528000     -1.9410781E-19
   3.534000     -1.9607653E-19
   3.540000     -1.9809796E-19
   3.546000     -2.0017166E-19
   3.552000     -2.0229720E-19
   3.558000     -2.0447424E-19
   3.564000     -2.0670222E-19
   3.570000     -2.0898069E-19
   3.576000     -2.1130909E-19
   3.582000     -2.1368686E-19
   3.588000     -2.1611330E-19
   3.594000     -2.1858770E-19
   3.600000     -2.2110926E-19
   3.606000     -2.2367700E-19
   3.612000     -2.2629004E-19
   3.618000     -2.2894736E-19
   3.624000     -2.3164795E-19
   3.630000     -2.3439065E-19
   3.636000     -2.3717440E-19
   3.642000     -2.3999800E-19
   3.648000     -2.4286025E-19
   3.654000     -2.4575996E-19
   3.660000     -2.4869578E-19
   3.666000     -2.5166657E-19
   3.672000     -2.5467089E-19
   3.678000     -2.5770750E-19
   3.684000     -2.6077497E-19
   3.690000     -2.6387183E-19
   3.696000     -2.6699663E-19
   3.702000     -2.7014783E-19
   3.708000     -2.7332376E-19
   3.714000     -2.7652291E-19
   3.720000     -2.7974349E-19
   3.726000     -2.8298394E-19
   3.732000     -2.8624241E-19
   3.738000     -2.8951730E-19
   3.744000     -2.9280681E-19
   3.750000     -2.9610918E-19
   3.756000     -2.9942255E-19
   3.762000     -3.0274523E-19
   3.768000     -3.0607531E-19
   3.774000     -3.0941089E-19
   3.780000     -3.1275009E-19
   3.786000     -3.1609102E-19
   3.792000     -3.1943148E-19
   3.798000     -3.2276957E-19
   3.804000     -3.2610314E-19
   3.810000     -3.2943003E-19
   3.816000     -3.3274819E-19
   3.822000     -3.3605541E-19
   3.828000     -3.3934963E-19
   3.834000     -3.4262860E-19
   3.840000     -3.4589012E-19
   3.846000     -3.4913218E-19
   3.852000     -3.5235252E-19
   3.858000     -3.5554901E-19
   3.864000     -3.5871951E-19
   3.870000     -3.6186192E-19
   3.876000     -3.6497421E-19
   3.882000     -3.6805417E-19
   3.888000     -3.7109987E-19
   3.894000     -3.7410923E-19
   3.900000     -3.7708013E-19
   3.906000     -3.8001055E-19
   3.912000     -3.8289842E-19
   3.918000     -3.8574159E-19
   3.924000     -3.8853800E-19
   3.930000     -3.9128548E-19
   3.936000     -3.9398196E-19
   3.942000     -3.9662530E-19
   3.948000     -3.9921342E-19
   3.954000     -4.0174412E-19
   3.960000     -4.0421545E-19
   3.966000     -4.0662550E-19
   3.972000     -4.0897216E-19
   3.978000     -4.1125362E-19
   3.984000     -4.1346791E-19
   3.990000     -4.1561333E-19
   3.996000     -4.1768803E-19
   4.002000     -4.1969035E-19
   4.008000     -4.2161853E-19
   4.014000     -4.2347113E-19
   4.020000     -4.2524637E-19
   4.026000     -4.2694276E-19
   4.032000     -4.2855879E-19
   4.038000     -4.3009300E-19
   4.044000     -4.3154385E-19
   4.050000     -4.3291001E-19
   4.056000     -4.3419000E-19
   4.062000     -4.3538264E-19
   4.068000     -4.3648667E-19
   4.074000     -4.3750074E-19
   4.080000     -4.3842377E-19
   4.086000     -4.3925462E-19
   4.092000     -4.3999210E-19
   4.098000     -4.4063539E-19
   4.104000     -4.4118355E-19
   4.110000     -4.4163576E-19
   4.116000     -4.4199114E-19
   4.122000     -4.4224906E-19
   4.128000     -4.4240912E-19
   4.134000     -4.4247044E-19
   4.140000     -4.4243275E-19
   4.146000     -4.4229554E-19
   4.152000     -4.4205855E-19
   4.158000     -4.4172148E-19
   4.164000     -4.4128395E-19
   4.170000     -4.4074587E-19
   4.176000     -4.4010724E-19
   4.182000     -4.3936774E-19
   4.188000     -4.3852758E-19
   4.194000     -4.3758671E-19
   4.200000     -4.3654534E-19
   4.206000     -4.3540368E-19
   4.212000     -4.3416177E-19
   4.218000     -4.3282016E-19
   4.224000     -4.3137906E-19
   4.230000     -4.2983900E-19
   4.236000     -4.2820046E-19
   4.242000     -4.2646418E-19
   4.248000     -4.2463069E-19
   4.254000     -4.2270085E-19
   4.260000     -4.2067547E-19
   4.266000     -4.1855566E-19
   4.272000     -4.1634216E-19
   4.278000     -4.1403634E-19
   4.284000     -4.1163914E-19
   4.290000     -4.0915191E-19
   4.296000     -4.0657594E-19